 DBCSR| CPU Multiplication driver                                           BLAS (U)
 DBCSR| Multrec recursion limit                                              512 (U)
 DBCSR| Multiplication stack size                                           1000 (D)
 DBCSR| Maximum elements for images                                    UNLIMITED (U)
 DBCSR| Multiplicative factor virtual images                                   1 (U)
 DBCSR| Use multiplication densification                                       T (D)
 DBCSR| Multiplication size stacks                                             3 (U)
 DBCSR| Use memory pool for CPU allocation                                     F (U)
 DBCSR| Number of 3D layers                                               SINGLE (U)
 DBCSR| Use MPI memory allocation                                              F (U)
 DBCSR| Use RMA algorithm                                                      F (U)
 DBCSR| Use Communication thread                                               T (U)
 DBCSR| Communication thread load                                             75 (D)
 DBCSR| MPI: My process id                                                     0
 DBCSR| MPI: Number of processes                                              48
 DBCSR| OMP: Current number of threads                                         4
 DBCSR| OMP: Max number of threads                                             4
 DBCSR| Split modifier for TAS multiplication algorithm                  1.0E+00 (U)


  **** **** ******  **  PROGRAM STARTED AT               2025-03-26 06:55:05.425
 ***** ** ***  *** **   PROGRAM STARTED ON                          i05r06c01s01
 **    ****   ******    PROGRAM STARTED BY                               di38fab
 ***** **    ** ** **   PROGRAM PROCESS ID                               2198544
  **** **  *******  **  PROGRAM STARTED IN /hppfs/scratch/04/di38fab/05_MOL/W4-1
                                           1+ALK/alcl/TZVP/GW+BSE/1e-4

 CP2K| version string:                 CP2K version 2025.1 (Development Version)
 CP2K| source code revision number:                                  git:d2e611a
 CP2K| cp2kflags: omp libint fftw3 libxc parallel scalapack max_contr=4         
 CP2K| is freely available from                            https://www.cp2k.org/
 CP2K| Program compiled at                       Thu 06 Mar 2025 05:09:20 PM CET
 CP2K| Program compiled on                                               login02
 CP2K| Program compiled for                                        Supermuc-foss
 CP2K| Data directory path                  /hppfs/work/pn36zo/di38fab/cp2k/data
 CP2K| Input file name                                                    GW.inp

 GLOBAL| Force Environment number                                              1
 GLOBAL| Basis set file name            /hppfs/scratch/04/di38fab/04_TMD/BASIS_A
 GLOBAL| Potential file name            /hppfs/work/pn36zo/di38fab/cp2k/data/ALL
 GLOBAL| MM Potential file name                                     MM_POTENTIAL
 GLOBAL| Coordinate file name                                      __STD_INPUT__
 GLOBAL| Method name                                                        CP2K
 GLOBAL| Project name                                                       MoS2
 GLOBAL| Run type                                                         ENERGY
 GLOBAL| FFT library                                                       FFTW3
 GLOBAL| Diagonalization library                                       ScaLAPACK
 GLOBAL| DGEMM library                                                      BLAS
 GLOBAL| Orthonormality check for eigenvectors                          DISABLED
 GLOBAL| Matrix multiplication library                                 ScaLAPACK
 GLOBAL| All-to-all communication in single precision                          F
 GLOBAL| FFTs using library dependent lengths                                  F
 GLOBAL| Grid backend                                                       AUTO
 GLOBAL| Global print level                                               MEDIUM
 GLOBAL| MPI I/O enabled                                                       T
 GLOBAL| Total number of message passing processes                            48
 GLOBAL| Number of threads for this process                                    4
 GLOBAL| This output is from process                                           0
 GLOBAL| OpenMP stack size per thread (OMP_STACKSIZE)                    default
 GLOBAL| CPU model name             Intel(R) Xeon(R) Platinum 8174 CPU @ 3.10GHz

 MEMORY| system memory details [Kb]
 MEMORY|                        rank 0           min           max       average
 MEMORY| MemTotal             98436660      98436648      98436664      98436658
 MEMORY| MemFree              83850908      83850908      84159976      84044960
 MEMORY| Buffers                     0             0             0             0
 MEMORY| Cached                2385360       2381444       2399400       2389529
 MEMORY| Slab                  1229244       1221992       1235676       1230540
 MEMORY| SReclaimable           274008        267376        280964        274941
 MEMORY| MemLikelyFree        86510276      86510276      86827916      86709430


 *** Fundamental physical constants (SI units) ***

 *** Literature: B. J. Mohr and B. N. Taylor,
 ***             CODATA recommended values of the fundamental physical
 ***             constants: 2006, Web Version 5.1
 ***             http://physics.nist.gov/constants

 Speed of light in vacuum [m/s]                             2.99792458000000E+08
 Magnetic constant or permeability of vacuum [N/A**2]       1.25663706143592E-06
 Electric constant or permittivity of vacuum [F/m]          8.85418781762039E-12
 Planck constant (h) [J*s]                                  6.62606896000000E-34
 Planck constant (h-bar) [J*s]                              1.05457162825177E-34
 Elementary charge [C]                                      1.60217648700000E-19
 Electron mass [kg]                                         9.10938215000000E-31
 Electron g factor [ ]                                     -2.00231930436220E+00
 Proton mass [kg]                                           1.67262163700000E-27
 Fine-structure constant                                    7.29735253760000E-03
 Rydberg constant [1/m]                                     1.09737315685270E+07
 Avogadro constant [1/mol]                                  6.02214179000000E+23
 Boltzmann constant [J/K]                                   1.38065040000000E-23
 Atomic mass unit [kg]                                      1.66053878200000E-27
 Bohr radius [m]                                            5.29177208590000E-11

 *** Conversion factors ***

 [u] -> [a.u.]                                              1.82288848426455E+03
 [Angstrom] -> [Bohr] = [a.u.]                              1.88972613288564E+00
 [a.u.] = [Bohr] -> [Angstrom]                              5.29177208590000E-01
 [a.u.] -> [s]                                              2.41888432650478E-17
 [a.u.] -> [fs]                                             2.41888432650478E-02
 [a.u.] -> [J]                                              4.35974393937059E-18
 [a.u.] -> [N]                                              8.23872205491840E-08
 [a.u.] -> [K]                                              3.15774647902944E+05
 [a.u.] -> [kJ/mol]                                         2.62549961709828E+03
 [a.u.] -> [kcal/mol]                                       6.27509468713739E+02
 [a.u.] -> [Pa]                                             2.94210107994716E+13
 [a.u.] -> [bar]                                            2.94210107994716E+08
 [a.u.] -> [atm]                                            2.90362800883016E+08
 [a.u.] -> [eV]                                             2.72113838565563E+01
 [a.u.] -> [Hz]                                             6.57968392072181E+15
 [a.u.] -> [1/cm] (wave numbers)                            2.19474631370540E+05
 [a.u./Bohr**2] -> [1/cm]                                   5.14048714338585E+03
 

 CELL_TOP| Volume [angstrom^3]:                                     27000.000000
 CELL_TOP| Vector a [angstrom    30.000     0.000     0.000   |a| =    30.000000
 CELL_TOP| Vector b [angstrom     0.000    30.000     0.000   |b| =    30.000000
 CELL_TOP| Vector c [angstrom     0.000     0.000    30.000   |c| =    30.000000
 CELL_TOP| Angle (b,c), alpha [degree]:                                90.000000
 CELL_TOP| Angle (a,c), beta  [degree]:                                90.000000
 CELL_TOP| Angle (a,b), gamma [degree]:                                90.000000
 CELL_TOP| Numerically orthorhombic:                                         YES
 CELL_TOP| Periodicity                                                      NONE

 GENERATE|  Preliminary Number of Bonds generated:                             0
 GENERATE|  Achieved consistency in connectivity generation.

 CELL| Volume [angstrom^3]:                                         27000.000000
 CELL| Vector a [angstrom]:      30.000     0.000     0.000   |a| =    30.000000
 CELL| Vector b [angstrom]:       0.000    30.000     0.000   |b| =    30.000000
 CELL| Vector c [angstrom]:       0.000     0.000    30.000   |c| =    30.000000
 CELL| Angle (b,c), alpha [degree]:                                    90.000000
 CELL| Angle (a,c), beta  [degree]:                                    90.000000
 CELL| Angle (a,b), gamma [degree]:                                    90.000000
 CELL| Numerically orthorhombic:                                             YES
 CELL| Periodicity                                                          NONE

 CELL_REF| Volume [angstrom^3]:                                     27000.000000
 CELL_REF| Vector a [angstrom    30.000     0.000     0.000   |a| =    30.000000
 CELL_REF| Vector b [angstrom     0.000    30.000     0.000   |b| =    30.000000
 CELL_REF| Vector c [angstrom     0.000     0.000    30.000   |c| =    30.000000
 CELL_REF| Angle (b,c), alpha [degree]:                                90.000000
 CELL_REF| Angle (a,c), beta  [degree]:                                90.000000
 CELL_REF| Angle (a,b), gamma [degree]:                                90.000000
 CELL_REF| Numerically orthorhombic:                                         YES
 CELL_REF| Periodicity                                                      NONE

 *******************************************************************************
 *******************************************************************************
 **                                                                           **
 **     #####                         ##              ##                      **
 **    ##   ##            ##          ##              ##                      **
 **   ##     ##                       ##            ######                    **
 **   ##     ##  ##   ##  ##   #####  ##  ##   ####   ##    #####    #####    **
 **   ##     ##  ##   ##  ##  ##      ## ##   ##      ##   ##   ##  ##   ##   **
 **   ##  ## ##  ##   ##  ##  ##      ####     ###    ##   ######   ######    **
 **    ##  ###   ##   ##  ##  ##      ## ##      ##   ##   ##       ##        **
 **     #######   #####   ##   #####  ##  ##  ####    ##    #####   ##        **
 **           ##                                                    ##        **
 **                                                                           **
 **                                                ... make the atoms dance   **
 **                                                                           **
 **            Copyright (C) by CP2K developers group (2000-2025)             **
 **                      J. Chem. Phys. 152, 194103 (2020)                    **
 **                                                                           **
 *******************************************************************************

 DFT| Spin restricted Kohn-Sham (RKS) calculation                            RKS
 DFT| Multiplicity                                                             1
 DFT| Number of spin states                                                    1
 DFT| Charge                                                                   0
 DFT| Self-interaction correction (SIC)                                       NO
 DFT| Cutoffs: density                                              1.000000E-10
 DFT|          gradient                                             1.000000E-10
 DFT|          tau                                                  1.000000E-10
 DFT|          cutoff_smoothing_range                               0.000000E+00
 DFT| XC density smoothing                                                  NONE
 DFT| XC derivatives                                                          PW

 FUNCTIONAL| PBE:
 FUNCTIONAL| J.P.Perdew, K.Burke, M.Ernzerhof, Phys. Rev. Letter, vol. 77, n 18,
 FUNCTIONAL|  pp. 3865-3868, (1996)sx=0.750sc=1.000{spin unpolarized}           


 QS| Method:                                                                GAPW
 QS| Density plane wave grid type                        NON-SPHERICAL FULLSPACE
 QS| Number of grid levels:                                                    4
 QS| Density cutoff [a.u.]:                                                250.0
 QS| Multi grid cutoff [a.u.]: 1) grid level                               250.0
 QS|                           2) grid level                                83.3
 QS|                           3) grid level                                27.8
 QS|                           4) grid level                                 9.3
 QS| Grid level progression factor:                                          3.0
 QS| Relative density cutoff [a.u.]:                                        50.0
 QS| Interaction thresholds: eps_pgf_orb:                                1.0E-12
 QS|                         eps_filter_matrix:                          0.0E+00
 QS|                         eps_core_charge:                            1.0E-14
 QS|                         eps_rho_gspace:                             1.0E-12
 QS|                         eps_rho_rspace:                             1.0E-12
 QS|                         eps_gvg_rspace:                             1.0E-06
 QS|                         eps_ppl:                                    1.0E-02
 QS|                         eps_ppnl:                                   1.0E-08
 QS| GAPW|      One center basis from orbital basis primitives
 QS| GAPW|                   eps_fit:                                    1.0E-04
 QS| GAPW|                   eps_iso:                                    1.0E-12
 QS| GAPW|                   eps_svd:                                    1.0E-08
 QS| GAPW|                   eps_cpc:                                    1.0E-12
 QS| GAPW|   atom-r-grid: quadrature:                                     GC_LOG
 QS| GAPW|      atom-s-grid:  max l :                                          8
 QS| GAPW|      max_l_rho0 :                                                   2


 ATOMIC KIND INFORMATION

  1. Atomic kind: AL                                    Number of atoms:       1

     Orbital Basis Set                                        aug-TZVP-MOLOPT-ae

       Number of orbital shell sets:                                           3
       Number of orbital shells:                                              19
       Number of primitive Cartesian functions:                               18
       Number of Cartesian basis functions:                                   83
       Number of spherical basis functions:                                   67
       Norm type:                                                              2

       Normalised Cartesian orbitals:

                        Set   Shell   Orbital            Exponent    Coefficient

                          1       1    1s                0.064494       0.000126
                                                         0.110000       0.000000
                                                         0.201490       0.008536
                                                         0.613444       0.107188
                                                         1.609191       0.843263
                                                         4.148366      -0.110183

                          1       2    2s                0.064494       0.004139
                                                         0.110000       0.000000
                                                         0.201490       0.211045
                                                         0.613444       0.004994
                                                         1.609191      -0.052318
                                                         4.148366      -0.041966

                          1       3    3s                0.064494       0.101883
                                                         0.110000       0.000000
                                                         0.201490      -0.009651
                                                         0.613444      -0.131957
                                                         1.609191       0.071691
                                                         4.148366       0.003951

                          1       4    4s                0.064494       0.224044
                                                         0.110000      -0.236967
                                                         0.201490       0.007733
                                                         0.613444       0.036896
                                                         1.609191       0.038116
                                                         4.148366       0.000000

                          1       5    2px               0.064494      -0.001875
                                                         0.110000       0.000000
                                                         0.201490       0.020353
                                                         0.613444      -0.085652
                                                         1.609191       2.668939
                                                         4.148366       0.214757
                          1       5    2py               0.064494      -0.001875
                                                         0.110000       0.000000
                                                         0.201490       0.020353
                                                         0.613444      -0.085652
                                                         1.609191       2.668939
                                                         4.148366       0.214757
                          1       5    2pz               0.064494      -0.001875
                                                         0.110000       0.000000
                                                         0.201490       0.020353
                                                         0.613444      -0.085652
                                                         1.609191       2.668939
                                                         4.148366       0.214757

                          1       6    3px               0.064494       0.000695
                                                         0.110000       0.000000
                                                         0.201490       0.039222
                                                         0.613444       0.616554
                                                         1.609191       0.168378
                                                         4.148366      -0.033400
                          1       6    3py               0.064494       0.000695
                                                         0.110000       0.000000
                                                         0.201490       0.039222
                                                         0.613444       0.616554
                                                         1.609191       0.168378
                                                         4.148366      -0.033400
                          1       6    3pz               0.064494       0.000695
                                                         0.110000       0.000000
                                                         0.201490       0.039222
                                                         0.613444       0.616554
                                                         1.609191       0.168378
                                                         4.148366      -0.033400

                          1       7    4px               0.064494      -0.004502
                                                         0.110000       0.000000
                                                         0.201490       0.245629
                                                         0.613444      -0.240203
                                                         1.609191      -0.439071
                                                         4.148366       0.751861
                          1       7    4py               0.064494      -0.004502
                                                         0.110000       0.000000
                                                         0.201490       0.245629
                                                         0.613444      -0.240203
                                                         1.609191      -0.439071
                                                         4.148366       0.751861
                          1       7    4pz               0.064494      -0.004502
                                                         0.110000       0.000000
                                                         0.201490       0.245629
                                                         0.613444      -0.240203
                                                         1.609191      -0.439071
                                                         4.148366       0.751861

                          1       8    5px               0.064494       0.044496
                                                         0.110000       0.000000
                                                         0.201490       0.013369
                                                         0.613444      -0.029590
                                                         1.609191       0.070129
                                                         4.148366      -0.246539
                          1       8    5py               0.064494       0.044496
                                                         0.110000       0.000000
                                                         0.201490       0.013369
                                                         0.613444      -0.029590
                                                         1.609191       0.070129
                                                         4.148366      -0.246539
                          1       8    5pz               0.064494       0.044496
                                                         0.110000       0.000000
                                                         0.201490       0.013369
                                                         0.613444      -0.029590
                                                         1.609191       0.070129
                                                         4.148366      -0.246539

                          1       9    6px               0.064494      -0.000523
                                                         0.110000       0.063383
                                                         0.201490       0.032641
                                                         0.613444       0.122250
                                                         1.609191       0.432235
                                                         4.148366       0.000000
                          1       9    6py               0.064494      -0.000523
                                                         0.110000       0.063383
                                                         0.201490       0.032641
                                                         0.613444       0.122250
                                                         1.609191       0.432235
                                                         4.148366       0.000000
                          1       9    6pz               0.064494      -0.000523
                                                         0.110000       0.063383
                                                         0.201490       0.032641
                                                         0.613444       0.122250
                                                         1.609191       0.432235
                                                         4.148366       0.000000

                          1      10    3dx2              0.064494      -0.000807
                                                         0.110000       0.000000
                                                         0.201490      -0.009316
                                                         0.613444       0.020190
                                                         1.609191       3.654166
                                                         4.148366       0.780612
                          1      10    3dxy              0.064494      -0.001397
                                                         0.110000       0.000000
                                                         0.201490      -0.016136
                                                         0.613444       0.034970
                                                         1.609191       6.329202
                                                         4.148366       1.352059
                          1      10    3dxz              0.064494      -0.001397
                                                         0.110000       0.000000
                                                         0.201490      -0.016136
                                                         0.613444       0.034970
                                                         1.609191       6.329202
                                                         4.148366       1.352059
                          1      10    3dy2              0.064494      -0.000807
                                                         0.110000       0.000000
                                                         0.201490      -0.009316
                                                         0.613444       0.020190
                                                         1.609191       3.654166
                                                         4.148366       0.780612
                          1      10    3dyz              0.064494      -0.001397
                                                         0.110000       0.000000
                                                         0.201490      -0.016136
                                                         0.613444       0.034970
                                                         1.609191       6.329202
                                                         4.148366       1.352059
                          1      10    3dz2              0.064494      -0.000807
                                                         0.110000       0.000000
                                                         0.201490      -0.009316
                                                         0.613444       0.020190
                                                         1.609191       3.654166
                                                         4.148366       0.780612

                          1      11    4dx2              0.064494      -0.000166
                                                         0.110000       0.000000
                                                         0.201490      -0.007238
                                                         0.613444       0.751436
                                                         1.609191      -0.148001
                                                         4.148366      -0.359381
                          1      11    4dxy              0.064494      -0.000288
                                                         0.110000       0.000000
                                                         0.201490      -0.012536
                                                         0.613444       1.301526
                                                         1.609191      -0.256345
                                                         4.148366      -0.622466
                          1      11    4dxz              0.064494      -0.000288
                                                         0.110000       0.000000
                                                         0.201490      -0.012536
                                                         0.613444       1.301526
                                                         1.609191      -0.256345
                                                         4.148366      -0.622466
                          1      11    4dy2              0.064494      -0.000166
                                                         0.110000       0.000000
                                                         0.201490      -0.007238
                                                         0.613444       0.751436
                                                         1.609191      -0.148001
                                                         4.148366      -0.359381
                          1      11    4dyz              0.064494      -0.000288
                                                         0.110000       0.000000
                                                         0.201490      -0.012536
                                                         0.613444       1.301526
                                                         1.609191      -0.256345
                                                         4.148366      -0.622466
                          1      11    4dz2              0.064494      -0.000166
                                                         0.110000       0.000000
                                                         0.201490      -0.007238
                                                         0.613444       0.751436
                                                         1.609191      -0.148001
                                                         4.148366      -0.359381

                          1      12    5dx2              0.064494       0.002608
                                                         0.110000       0.000000
                                                         0.201490       0.080089
                                                         0.613444       0.042788
                                                         1.609191       0.316831
                                                         4.148366       1.916010
                          1      12    5dxy              0.064494       0.004517
                                                         0.110000       0.000000
                                                         0.201490       0.138718
                                                         0.613444       0.074111
                                                         1.609191       0.548767
                                                         4.148366       3.318627
                          1      12    5dxz              0.064494       0.004517
                                                         0.110000       0.000000
                                                         0.201490       0.138718
                                                         0.613444       0.074111
                                                         1.609191       0.548767
                                                         4.148366       3.318627
                          1      12    5dy2              0.064494       0.002608
                                                         0.110000       0.000000
                                                         0.201490       0.080089
                                                         0.613444       0.042788
                                                         1.609191       0.316831
                                                         4.148366       1.916010
                          1      12    5dyz              0.064494       0.004517
                                                         0.110000       0.000000
                                                         0.201490       0.138718
                                                         0.613444       0.074111
                                                         1.609191       0.548767
                                                         4.148366       3.318627
                          1      12    5dz2              0.064494       0.002608
                                                         0.110000       0.000000
                                                         0.201490       0.080089
                                                         0.613444       0.042788
                                                         1.609191       0.316831
                                                         4.148366       1.916010

                          1      13    6dx2              0.064494       0.008593
                                                         0.110000       0.001437
                                                         0.201490      -0.016609
                                                         0.613444       0.532723
                                                         1.609191       0.217501
                                                         4.148366       0.000000
                          1      13    6dxy              0.064494       0.014884
                                                         0.110000       0.002488
                                                         0.201490      -0.028768
                                                         0.613444       0.922703
                                                         1.609191       0.376724
                                                         4.148366       0.000000
                          1      13    6dxz              0.064494       0.014884
                                                         0.110000       0.002488
                                                         0.201490      -0.028768
                                                         0.613444       0.922703
                                                         1.609191       0.376724
                                                         4.148366       0.000000
                          1      13    6dy2              0.064494       0.008593
                                                         0.110000       0.001437
                                                         0.201490      -0.016609
                                                         0.613444       0.532723
                                                         1.609191       0.217501
                                                         4.148366       0.000000
                          1      13    6dyz              0.064494       0.014884
                                                         0.110000       0.002488
                                                         0.201490      -0.028768
                                                         0.613444       0.922703
                                                         1.609191       0.376724
                                                         4.148366       0.000000
                          1      13    6dz2              0.064494       0.008593
                                                         0.110000       0.001437
                                                         0.201490      -0.016609
                                                         0.613444       0.532723
                                                         1.609191       0.217501
                                                         4.148366       0.000000

                          1      14    4fx3              0.064494      -0.000200
                                                         0.110000       0.000000
                                                         0.201490       0.029769
                                                         0.613444       0.205065
                                                         1.609191       0.017213
                                                         4.148366      -0.345579
                          1      14    4fx2y             0.064494      -0.000448
                                                         0.110000       0.000000
                                                         0.201490       0.066565
                                                         0.613444       0.458539
                                                         1.609191       0.038489
                                                         4.148366      -0.772738
                          1      14    4fx2z             0.064494      -0.000448
                                                         0.110000       0.000000
                                                         0.201490       0.066565
                                                         0.613444       0.458539
                                                         1.609191       0.038489
                                                         4.148366      -0.772738
                          1      14    4fxy2             0.064494      -0.000448
                                                         0.110000       0.000000
                                                         0.201490       0.066565
                                                         0.613444       0.458539
                                                         1.609191       0.038489
                                                         4.148366      -0.772738
                          1      14    4fxyz             0.064494      -0.000776
                                                         0.110000       0.000000
                                                         0.201490       0.115293
                                                         0.613444       0.794214
                                                         1.609191       0.066664
                                                         4.148366      -1.338422
                          1      14    4fxz2             0.064494      -0.000448
                                                         0.110000       0.000000
                                                         0.201490       0.066565
                                                         0.613444       0.458539
                                                         1.609191       0.038489
                                                         4.148366      -0.772738
                          1      14    4fy3              0.064494      -0.000200
                                                         0.110000       0.000000
                                                         0.201490       0.029769
                                                         0.613444       0.205065
                                                         1.609191       0.017213
                                                         4.148366      -0.345579
                          1      14    4fy2z             0.064494      -0.000448
                                                         0.110000       0.000000
                                                         0.201490       0.066565
                                                         0.613444       0.458539
                                                         1.609191       0.038489
                                                         4.148366      -0.772738
                          1      14    4fyz2             0.064494      -0.000448
                                                         0.110000       0.000000
                                                         0.201490       0.066565
                                                         0.613444       0.458539
                                                         1.609191       0.038489
                                                         4.148366      -0.772738
                          1      14    4fz3              0.064494      -0.000200
                                                         0.110000       0.000000
                                                         0.201490       0.029769
                                                         0.613444       0.205065
                                                         1.609191       0.017213
                                                         4.148366      -0.345579

                          1      15    5fx3              0.064494       0.002578
                                                         0.110000       0.002593
                                                         0.201490      -0.004413
                                                         0.613444       0.006826
                                                         1.609191       0.063169
                                                         4.148366       0.000000
                          1      15    5fx2y             0.064494       0.005765
                                                         0.110000       0.005799
                                                         0.201490      -0.009869
                                                         0.613444       0.015263
                                                         1.609191       0.141250
                                                         4.148366       0.000000
                          1      15    5fx2z             0.064494       0.005765
                                                         0.110000       0.005799
                                                         0.201490      -0.009869
                                                         0.613444       0.015263
                                                         1.609191       0.141250
                                                         4.148366       0.000000
                          1      15    5fxy2             0.064494       0.005765
                                                         0.110000       0.005799
                                                         0.201490      -0.009869
                                                         0.613444       0.015263
                                                         1.609191       0.141250
                                                         4.148366       0.000000
                          1      15    5fxyz             0.064494       0.009985
                                                         0.110000       0.010045
                                                         0.201490      -0.017093
                                                         0.613444       0.026436
                                                         1.609191       0.244652
                                                         4.148366       0.000000
                          1      15    5fxz2             0.064494       0.005765
                                                         0.110000       0.005799
                                                         0.201490      -0.009869
                                                         0.613444       0.015263
                                                         1.609191       0.141250
                                                         4.148366       0.000000
                          1      15    5fy3              0.064494       0.002578
                                                         0.110000       0.002593
                                                         0.201490      -0.004413
                                                         0.613444       0.006826
                                                         1.609191       0.063169
                                                         4.148366       0.000000
                          1      15    5fy2z             0.064494       0.005765
                                                         0.110000       0.005799
                                                         0.201490      -0.009869
                                                         0.613444       0.015263
                                                         1.609191       0.141250
                                                         4.148366       0.000000
                          1      15    5fyz2             0.064494       0.005765
                                                         0.110000       0.005799
                                                         0.201490      -0.009869
                                                         0.613444       0.015263
                                                         1.609191       0.141250
                                                         4.148366       0.000000
                          1      15    5fz3              0.064494       0.002578
                                                         0.110000       0.002593
                                                         0.201490      -0.004413
                                                         0.613444       0.006826
                                                         1.609191       0.063169
                                                         4.148366       0.000000

                          1      16    5gx4              0.064494       0.000026
                                                         0.110000       0.000148
                                                         0.201490       0.012392
                                                         0.613444       0.010924
                                                         1.609191       0.178807
                                                         4.148366       0.000000
                          1      16    5gx3y             0.064494       0.000068
                                                         0.110000       0.000392
                                                         0.201490       0.032785
                                                         0.613444       0.028901
                                                         1.609191       0.473080
                                                         4.148366       0.000000
                          1      16    5gx3z             0.064494       0.000068
                                                         0.110000       0.000392
                                                         0.201490       0.032785
                                                         0.613444       0.028901
                                                         1.609191       0.473080
                                                         4.148366       0.000000
                          1      16    5gx2y2            0.064494       0.000088
                                                         0.110000       0.000507
                                                         0.201490       0.042325
                                                         0.613444       0.037312
                                                         1.609191       0.610743
                                                         4.148366       0.000000
                          1      16    5gx2yz            0.064494       0.000153
                                                         0.110000       0.000877
                                                         0.201490       0.073310
                                                         0.613444       0.064626
                                                         1.609191       1.057838
                                                         4.148366       0.000000
                          1      16    5gx2z2            0.064494       0.000088
                                                         0.110000       0.000507
                                                         0.201490       0.042325
                                                         0.613444       0.037312
                                                         1.609191       0.610743
                                                         4.148366       0.000000
                          1      16    5gxy3             0.064494       0.000068
                                                         0.110000       0.000392
                                                         0.201490       0.032785
                                                         0.613444       0.028901
                                                         1.609191       0.473080
                                                         4.148366       0.000000
                          1      16    5gxy2z            0.064494       0.000153
                                                         0.110000       0.000877
                                                         0.201490       0.073310
                                                         0.613444       0.064626
                                                         1.609191       1.057838
                                                         4.148366       0.000000
                          1      16    5gxyz2            0.064494       0.000153
                                                         0.110000       0.000877
                                                         0.201490       0.073310
                                                         0.613444       0.064626
                                                         1.609191       1.057838
                                                         4.148366       0.000000
                          1      16    5gxz3             0.064494       0.000068
                                                         0.110000       0.000392
                                                         0.201490       0.032785
                                                         0.613444       0.028901
                                                         1.609191       0.473080
                                                         4.148366       0.000000
                          1      16    5gy4              0.064494       0.000026
                                                         0.110000       0.000148
                                                         0.201490       0.012392
                                                         0.613444       0.010924
                                                         1.609191       0.178807
                                                         4.148366       0.000000
                          1      16    5gy3z             0.064494       0.000068
                                                         0.110000       0.000392
                                                         0.201490       0.032785
                                                         0.613444       0.028901
                                                         1.609191       0.473080
                                                         4.148366       0.000000
                          1      16    5gy2z2            0.064494       0.000088
                                                         0.110000       0.000507
                                                         0.201490       0.042325
                                                         0.613444       0.037312
                                                         1.609191       0.610743
                                                         4.148366       0.000000
                          1      16    5gyz3             0.064494       0.000068
                                                         0.110000       0.000392
                                                         0.201490       0.032785
                                                         0.613444       0.028901
                                                         1.609191       0.473080
                                                         4.148366       0.000000
                          1      16    5gz4              0.064494       0.000026
                                                         0.110000       0.000148
                                                         0.201490       0.012392
                                                         0.613444       0.010924
                                                         1.609191       0.178807
                                                         4.148366       0.000000

                          2       1    1s              452.528436       0.533774
                                                       107.119023       1.481162
                                                        34.047655       2.555551
                                                        12.525255       1.342997
                                                         4.333798      -2.749242

                          2       2    2px             452.528436       5.781888
                                                       107.119023      11.471936
                                                        34.047655      10.257031
                                                        12.525255      11.178282
                                                         4.333798       6.078700
                          2       2    2py             452.528436       5.781888
                                                       107.119023      11.471936
                                                        34.047655      10.257031
                                                        12.525255      11.178282
                                                         4.333798       6.078700
                          2       2    2pz             452.528436       5.781888
                                                       107.119023      11.471936
                                                        34.047655      10.257031
                                                        12.525255      11.178282
                                                         4.333798       6.078700

                          3       1    1s            37792.562568       1.087036
                                                      5668.107384       2.047063
                                                      1289.982926       3.429104
                                                       364.877998       5.170346
                                                       118.653376       6.362760
                                                        42.008686       5.315677
                                                        15.356196       1.824247

     RI Auxiliary Basis Set             RI_aug-TZVP-MOLOPT-ae_N_RI_117_s_p_d_f_g

       Number of orbital shell sets:                                          27
       Number of orbital shells:                                              27
       Number of primitive Cartesian functions:                               27
       Number of Cartesian basis functions:                                  156
       Number of spherical basis functions:                                  117
       Norm type:                                                              2

       Normalised Cartesian orbitals:

                        Set   Shell   Orbital            Exponent    Coefficient

                          1       1   20fx3              0.123504       0.013312
                          1       1   20fx2y             0.123504       0.029766
                          1       1   20fx2z             0.123504       0.029766
                          1       1   20fxy2             0.123504       0.029766
                          1       1   20fxyz             0.123504       0.051556
                          1       1   20fxz2             0.123504       0.029766
                          1       1   20fy3              0.123504       0.013312
                          1       1   20fy2z             0.123504       0.029766
                          1       1   20fyz2             0.123504       0.029766
                          1       1   20fz3              0.123504       0.013312

                          2       1    1s                0.153370       0.174669

                          3       1    8px               0.169502       0.155028
                          3       1    8py               0.169502       0.155028
                          3       1    8pz               0.169502       0.155028

                          4       1   14dx2              0.172422       0.075936
                          4       1   14dxy              0.172422       0.131525
                          4       1   14dxz              0.172422       0.131525
                          4       1   14dy2              0.172422       0.075936
                          4       1   14dyz              0.172422       0.131525
                          4       1   14dz2              0.172422       0.075936

                          5       1   25gx4              0.190681       0.011676
                          5       1   25gx3y             0.190681       0.030891
                          5       1   25gx3z             0.190681       0.030891
                          5       1   25gx2y2            0.190681       0.039880
                          5       1   25gx2yz            0.190681       0.069074
                          5       1   25gx2z2            0.190681       0.039880
                          5       1   25gxy3             0.190681       0.030891
                          5       1   25gxy2z            0.190681       0.069074
                          5       1   25gxyz2            0.190681       0.069074
                          5       1   25gxz3             0.190681       0.030891
                          5       1   25gy4              0.190681       0.011676
                          5       1   25gy3z             0.190681       0.030891
                          5       1   25gy2z2            0.190681       0.039880
                          5       1   25gyz3             0.190681       0.030891
                          5       1   25gz4              0.190681       0.011676

                          6       1    9px               0.264073       0.269833
                          6       1    9py               0.264073       0.269833
                          6       1    9pz               0.264073       0.269833

                          7       1   21fx3              0.333129       0.124118
                          7       1   21fx2y             0.333129       0.277535
                          7       1   21fx2z             0.333129       0.277535
                          7       1   21fxy2             0.333129       0.277535
                          7       1   21fxyz             0.333129       0.480705
                          7       1   21fxz2             0.333129       0.277535
                          7       1   21fy3              0.333129       0.124118
                          7       1   21fy2z             0.333129       0.277535
                          7       1   21fyz2             0.333129       0.277535
                          7       1   21fz3              0.333129       0.124118

                          8       1    2s                0.356769       0.329003

                          9       1   15dx2              0.362799       0.279141
                          9       1   15dxy              0.362799       0.483487
                          9       1   15dxz              0.362799       0.483487
                          9       1   15dy2              0.362799       0.279141
                          9       1   15dyz              0.362799       0.483487
                          9       1   15dz2              0.362799       0.279141

                         10       1   26gx4              0.374090       0.074494
                         10       1   26gx3y             0.374090       0.197092
                         10       1   26gx3z             0.374090       0.197092
                         10       1   26gx2y2            0.374090       0.254444
                         10       1   26gx2yz            0.374090       0.440711
                         10       1   26gx2z2            0.374090       0.254444
                         10       1   26gxy3             0.374090       0.197092
                         10       1   26gxy2z            0.374090       0.440711
                         10       1   26gxyz2            0.374090       0.440711
                         10       1   26gxz3             0.374090       0.197092
                         10       1   26gy4              0.374090       0.074494
                         10       1   26gy3z             0.374090       0.197092
                         10       1   26gy2z2            0.374090       0.254444
                         10       1   26gyz3             0.374090       0.197092
                         10       1   26gz4              0.374090       0.074494

                         11       1   10px               0.689044       0.894847
                         11       1   10py               0.689044       0.894847
                         11       1   10pz               0.689044       0.894847

                         12       1   22fx3              0.795893       0.880801
                         12       1   22fx2y             0.795893       1.969531
                         12       1   22fx2z             0.795893       1.969531
                         12       1   22fxy2             0.795893       1.969531
                         12       1   22fxyz             0.795893       3.411327
                         12       1   22fxz2             0.795893       1.969531
                         12       1   22fy3              0.795893       0.880801
                         12       1   22fy2z             0.795893       1.969531
                         12       1   22fyz2             0.795893       1.969531
                         12       1   22fz3              0.795893       0.880801

                         13       1   16dx2              0.805101       1.126283
                         13       1   16dxy              0.805101       1.950780
                         13       1   16dxz              0.805101       1.950780
                         13       1   16dy2              0.805101       1.126283
                         13       1   16dyz              0.805101       1.950780
                         13       1   16dz2              0.805101       1.126283

                         14       1   27gx4              1.046661       1.261542
                         14       1   27gx3y             1.046661       3.337726
                         14       1   27gx3z             1.046661       3.337726
                         14       1   27gx2y2            1.046661       4.308985
                         14       1   27gx2yz            1.046661       7.463381
                         14       1   27gx2z2            1.046661       4.308985
                         14       1   27gxy3             1.046661       3.337726
                         14       1   27gxy2z            1.046661       7.463381
                         14       1   27gxyz2            1.046661       7.463381
                         14       1   27gxz3             1.046661       3.337726
                         14       1   27gy4              1.046661       1.261542
                         14       1   27gy3z             1.046661       3.337726
                         14       1   27gy2z2            1.046661       4.308985
                         14       1   27gyz3             1.046661       3.337726
                         14       1   27gz4              1.046661       1.261542

                         15       1    3s                1.137133       0.784817

                         16       1   23fx3              1.427094       3.276971
                         16       1   23fx2y             1.427094       7.327531
                         16       1   23fx2z             1.427094       7.327531
                         16       1   23fxy2             1.427094       7.327531
                         16       1   23fxyz             1.427094      12.691655
                         16       1   23fxz2             1.427094       7.327531
                         16       1   23fy3              1.427094       3.276971
                         16       1   23fy2z             1.427094       7.327531
                         16       1   23fyz2             1.427094       7.327531
                         16       1   23fz3              1.427094       3.276971

                         17       1   17dx2              1.976980       5.425173
                         17       1   17dxy              1.976980       9.396676
                         17       1   17dxz              1.976980       9.396676
                         17       1   17dy2              1.976980       5.425173
                         17       1   17dyz              1.976980       9.396676
                         17       1   17dz2              1.976980       5.425173

                         18       1   11px               2.386267       4.227552
                         18       1   11py               2.386267       4.227552
                         18       1   11pz               2.386267       4.227552

                         19       1   24fx3              2.505904      11.631192
                         19       1   24fx2y             2.505904      26.008136
                         19       1   24fx2z             2.505904      26.008136
                         19       1   24fxy2             2.505904      26.008136
                         19       1   24fxyz             2.505904      45.047413
                         19       1   24fxz2             2.505904      26.008136
                         19       1   24fy3              2.505904      11.631192
                         19       1   24fy2z             2.505904      26.008136
                         19       1   24fyz2             2.505904      26.008136
                         19       1   24fz3              2.505904      11.631192

                         20       1    4s                4.141264       2.068996

                         21       1   18dx2              5.377934      31.259823
                         21       1   18dxy              5.377934      54.143601
                         21       1   18dxz              5.377934      54.143601
                         21       1   18dy2              5.377934      31.259823
                         21       1   18dyz              5.377934      54.143601
                         21       1   18dz2              5.377934      31.259823

                         22       1   12px               8.732338      21.397017
                         22       1   12py               8.732338      21.397017
                         22       1   12pz               8.732338      21.397017

                         23       1   19dx2             14.232194     171.646596
                         23       1   19dxy             14.232194     297.300624
                         23       1   19dxz             14.232194     297.300624
                         23       1   19dy2             14.232194     171.646596
                         23       1   19dyz             14.232194     297.300624
                         23       1   19dz2             14.232194     171.646596

                         24       1    5s               15.636626       5.604248

                         25       1   13px              28.041579      91.979949
                         25       1   13py              28.041579      91.979949
                         25       1   13pz              28.041579      91.979949

                         26       1    6s               57.272068      14.837722

                         27       1    7s              207.069152      38.904214

       Atomic covalent radius [Angstrom]:                                  1.180

       Atomic van der Waals radius [Angstrom]:                             1.840

     The atoms of this atomic kind are PAW atoms (GAPW):
       Hard Gaussian function radius:                                      1.512
       Rho0 radius:                                                        1.512
       Maximum GTO radius used for PAW projector construction:            24.566

     GAPW Soft Basis Set                                 aug-TZVP-MOLOPT-ae_soft

       Number of orbital shell sets:                                           3
       Number of orbital shells:                                              19
       Number of primitive Cartesian functions:                                6
       Number of Cartesian basis functions:                                   83
       Number of spherical basis functions:                                   67
       Norm type:                                                              2

       Normalised Cartesian orbitals:

                        Set   Shell   Orbital            Exponent    Coefficient

                          1       1    1s                0.064494       0.000126
                                                         0.110000       0.000000
                                                         0.201490       0.008536
                                                         0.613444       0.107188
                                                         1.609191       0.843263
                                                         4.148366       0.000000

                          1       2    2s                0.064494       0.004139
                                                         0.110000       0.000000
                                                         0.201490       0.211045
                                                         0.613444       0.004994
                                                         1.609191      -0.052318
                                                         4.148366       0.000000

                          1       3    3s                0.064494       0.101883
                                                         0.110000       0.000000
                                                         0.201490      -0.009651
                                                         0.613444      -0.131957
                                                         1.609191       0.071691
                                                         4.148366       0.000000

                          1       4    4s                0.064494       0.224044
                                                         0.110000      -0.236967
                                                         0.201490       0.007733
                                                         0.613444       0.036896
                                                         1.609191       0.038116
                                                         4.148366       0.000000

                          1       5    2px               0.064494      -0.001875
                                                         0.110000       0.000000
                                                         0.201490       0.020353
                                                         0.613444      -0.085652
                                                         1.609191       2.668939
                                                         4.148366       0.214757
                          1       5    2py               0.064494      -0.001875
                                                         0.110000       0.000000
                                                         0.201490       0.020353
                                                         0.613444      -0.085652
                                                         1.609191       2.668939
                                                         4.148366       0.214757
                          1       5    2pz               0.064494      -0.001875
                                                         0.110000       0.000000
                                                         0.201490       0.020353
                                                         0.613444      -0.085652
                                                         1.609191       2.668939
                                                         4.148366       0.214757

                          1       6    3px               0.064494       0.000695
                                                         0.110000       0.000000
                                                         0.201490       0.039222
                                                         0.613444       0.616554
                                                         1.609191       0.168378
                                                         4.148366      -0.033400
                          1       6    3py               0.064494       0.000695
                                                         0.110000       0.000000
                                                         0.201490       0.039222
                                                         0.613444       0.616554
                                                         1.609191       0.168378
                                                         4.148366      -0.033400
                          1       6    3pz               0.064494       0.000695
                                                         0.110000       0.000000
                                                         0.201490       0.039222
                                                         0.613444       0.616554
                                                         1.609191       0.168378
                                                         4.148366      -0.033400

                          1       7    4px               0.064494      -0.004502
                                                         0.110000       0.000000
                                                         0.201490       0.245629
                                                         0.613444      -0.240203
                                                         1.609191      -0.439071
                                                         4.148366       0.751861
                          1       7    4py               0.064494      -0.004502
                                                         0.110000       0.000000
                                                         0.201490       0.245629
                                                         0.613444      -0.240203
                                                         1.609191      -0.439071
                                                         4.148366       0.751861
                          1       7    4pz               0.064494      -0.004502
                                                         0.110000       0.000000
                                                         0.201490       0.245629
                                                         0.613444      -0.240203
                                                         1.609191      -0.439071
                                                         4.148366       0.751861

                          1       8    5px               0.064494       0.044496
                                                         0.110000       0.000000
                                                         0.201490       0.013369
                                                         0.613444      -0.029590
                                                         1.609191       0.070129
                                                         4.148366      -0.246539
                          1       8    5py               0.064494       0.044496
                                                         0.110000       0.000000
                                                         0.201490       0.013369
                                                         0.613444      -0.029590
                                                         1.609191       0.070129
                                                         4.148366      -0.246539
                          1       8    5pz               0.064494       0.044496
                                                         0.110000       0.000000
                                                         0.201490       0.013369
                                                         0.613444      -0.029590
                                                         1.609191       0.070129
                                                         4.148366      -0.246539

                          1       9    6px               0.064494      -0.000523
                                                         0.110000       0.063383
                                                         0.201490       0.032641
                                                         0.613444       0.122250
                                                         1.609191       0.432235
                                                         4.148366       0.000000
                          1       9    6py               0.064494      -0.000523
                                                         0.110000       0.063383
                                                         0.201490       0.032641
                                                         0.613444       0.122250
                                                         1.609191       0.432235
                                                         4.148366       0.000000
                          1       9    6pz               0.064494      -0.000523
                                                         0.110000       0.063383
                                                         0.201490       0.032641
                                                         0.613444       0.122250
                                                         1.609191       0.432235
                                                         4.148366       0.000000

                          1      10    3dx2              0.064494      -0.000807
[...]


 -------------------------------------------------------------------------------
 -                                                                             -
 -                           R E F E R E N C E S                               -
 -                                                                             -
 -------------------------------------------------------------------------------
 
 CP2K version 2025.1 (Development Version), the CP2K developers group (2025).
 CP2K is freely available from https://www.cp2k.org/ .
 
 T. D. Kuehne, M. Iannuzzi, M. Del Ben, V. V. Rybkin, P. Seewald, F. Stein, T. 
 Laino, R. Z. Khaliullin, O. Schuett, F. Schiffmann, D. Golze, J. Wilhelm, S. 
 Chulkov, M. H. Bani-Hashemian, V. Weber, U. Borstnik, M. Taillefumier, A. S. 
 Jakobovits, A. Lazzaro, H. Pabst, T. Mueller, R. Schade, M. Guidon, S. 
 Andermatt, N. Holmberg, G. K. Schenter, A. Hehn, A. Bussy, F. Belleflamme, G. 
 Tabacchi, A. Gloess, M. Lass, I. Bethune, C. J. Mundy, C. Plessl, M. Watkins, 
 J. VandeVondele, M. Krack, J. Hutter.
 J. Chem. Phys. 152, 194103 (2020).
 CP2K: An electronic structure and molecular dynamics software package - 
 Quickstep: Efficient and accurate electronic structure calculations.
 https://doi.org/10.1063/5.0007045

 J. Wilhelm, D. Golze, L. Talirz, J. Hutter, C. A. Pignedoli.
 J. Phys. Chem. Lett. 9, 306-312 (2018).
 Toward GW calculations on thousands of atoms.
 https://doi.org/10.1021/acs.jpclett.7b02740

 J. Wilhelm, J. Hutter.
 Phys. Rev. B 95, 235123 (2017).
 Periodic GW calculations in the Gaussian and plane-waves scheme.
 https://doi.org/10.1103/PhysRevB.95.235123

 O. Schuett, P. Messmer, J. Hutter, J. VandeVondele.
 Electronic Structure Calculations on Graphics Processing Units, 173-190 (2016).
 GPU-Accelerated Sparse Matrix-Matrix Multiplication for Linear Scaling Density 
 Functional Theory.
 https://doi.org/10.1002/9781118670712.ch8

 J. Wilhelm, M. Del Ben, J. Hutter.
 J. Chem. Theory Comput. 12, 3623-3635 (2016).
 GW in the Gaussian and plane waves scheme with application to linear acenes.
 https://doi.org/10.1021/acs.jctc.6b00380

 M. Del Ben, O. Schuett, T. Wentz, P. Messmer, J. Hutter, J. VandeVondele.
 Comput. Phys. Commun. 187, 120-129 (2015).
 Enabling simulation at the fifth rung of DFT: Large scale RPA calculations with 
 excellent time to solution.
 https://doi.org/10.1016/j.cpc.2014.10.021

 J. Hutter, M. Iannuzzi, F. Schiffmann, J. VandeVondele.
 WIREs Comput Mol Sci. 4, 15-25 (2014).
 CP2K: atomistic simulations of condensed matter systems.
 https://doi.org/10.1002/wcms.1159

 U. Borstnik, J. VandeVondele, V. Weber, J. Hutter.
 Parallel Comput. 40, 47-58 (2014).
 Sparse matrix multiplication: The distributed block-compressed sparse row 
 library.
 https://doi.org/10.1016/j.parco.2014.03.012

 M. Del Ben, J. Hutter, J. VandeVondele.
 J. Chem. Theory Comput. 9, 2654-2671 (2013).
 Electron Correlation in the Condensed Phase from a Resolution of Identity 
 Approach Based on the Gaussian and Plane Waves Scheme.
 https://doi.org/10.1021/ct4002202

 M. Del Ben, J. Hutter, J. VandeVondele.
 J. Chem. Theory Comput. 8, 4177-4188 (2012).
 Second-Order Moller-Plesset Perturbation Theory in the Condensed Phase: An 
 Efficient and Massively Parallel Gaussian and Plane Waves Approach.
 https://doi.org/10.1021/ct300531w

 M. Guidon, J. Hutter, J. VandeVondele.
 J. Chem. Theory Comput. 5, 3010-3021 (2009).
 Robust Periodic Hartree-Fock Exchange for Large-Scale Simulations Using 
 Gaussian Basis Sets.
 https://doi.org/10.1021/ct900494g

 M. Guidon, F. Schiffmann, J. Hutter, J. VandeVondele.
 J. Chem. Phys. 128, 214104 (2008).
 Ab initio molecular dynamics using hybrid density functionals.
 https://doi.org/10.1063/1.2931945

 L. Genovese, T. Deutsch, S. Goedecker.
 J. Chem. Phys. 127, 054704 (2007).
 Efficient and accurate three-dimensional Poisson solver for surface problems.
 https://doi.org/10.1063/1.2754685

 J. VandeVondele, J. Hutter.
 J. Chem. Phys. 127, 114105 (2007).
 Gaussian basis sets for accurate calculations on molecular systems in gas and 
 condensed phases.
 https://doi.org/10.1063/1.2770708

 L. Genovese, T. Deutsch, A. Neelov, S. Goedecker, G. Beylkin.
 J. Chem. Phys. 125, 074105 (2006).
 Efficient solution of Poisson's equation with free boundary conditions.
 https://doi.org/10.1063/1.2335442

 M. Frigo, S. G. Johnson.
 Proc. IEEE 93, 216-231 (2005).
 The design and implementation of FFTW3.
 https://doi.org/10.1109/JPROC.2004.840301

 M. Krack, M. Parrinello.
 Phys. Chem. Chem. Phys. 2, 2105-2112 (2000).
 All-electron ab-initio molecular dynamics.
 https://doi.org/10.1039/b001167n

 G. Lippert, J. Hutter, M. Parrinello.
 Theor. Chem. Acc. 103, 124-140 (1999).
 The Gaussian and augmented-plane-wave density functional method for ab initio 
 molecular dynamics simulations.
 https://doi.org/10.1007/s002140050523

 J. P. Perdew, K. Burke, M. Ernzerhof.
 Phys. Rev. Lett. 77, 3865-3868 (1996).
 Generalized gradient approximation made simple.
 https://doi.org/10.1103/PhysRevLett.77.3865


 -------------------------------------------------------------------------------
 -                                                                             -
 -                                T I M I N G                                  -
 -                                                                             -
 -------------------------------------------------------------------------------
 SUBROUTINE                       CALLS  ASD         SELF TIME        TOTAL TIME
                                MAXIMUM       AVERAGE  MAXIMUM  AVERAGE  MAXIMUM
 CP2K                                 1  1.0    0.040    0.067  677.139  677.139
 qs_energies                          1  2.0    0.001    0.001  676.065  676.296
 scf_env_do_scf                       1  3.0    0.000    0.000  667.542  667.548
 scf_env_do_scf_inner_loop           51  4.0    0.001    0.003  667.542  667.548
 qs_ks_build_kohn_sham_matrix        52  7.0    0.008    0.009  631.730  631.781
 qs_ks_update_qs_env                 51  5.0    0.000    0.000  629.772  629.823
 rebuild_ks_matrix                   51  6.0    0.000    0.000  629.766  629.816
 hfx_ks_matrix                       52  8.0    0.002    0.003  489.731  489.769
 integrate_four_center               52  9.0    4.412    5.641  489.727  489.766
 mp_sync                            677  9.3  360.451  376.844  360.451  376.844
 integrate_four_center_main          52 10.0    8.638  349.225   15.454  376.240
 integrate_four_center_bin         4213 11.0    6.816  325.591    6.816  325.591
 calc_screening_functions             1 10.0  100.833  107.457  101.419  108.053
 fft_wrap_pw1pw2                   1083  9.9    0.025    0.032   61.806   62.982
 fft_wrap_pw1pw2_250                771 11.1    2.639    3.004   59.805   61.007
 fft3d_ps                          1083 11.9   24.288   26.868   49.870   51.115
 pw_poisson_solve                    52  8.0    0.928    1.022   45.350   45.377
 qs_vxc_create                       52  8.0    0.001    0.001   36.152   36.153
 xc_vxc_pw_create                    51  9.0    0.629    0.710   36.151   36.152
 ps_wavelet_solve                    52  9.0   23.367   26.439   29.911   30.103
 xc_pw_derive                       306 11.0    0.003    0.004   26.917   27.823
 prepare_gapw_den                    52  8.0    0.001    0.002   26.292   26.422
 mp_alltoall_d54                     52 10.0    4.307   23.309    4.307   23.309
 mp_alltoall_z22v                  1083 13.9   19.727   22.388   19.727   22.388
 qs_rho_update_rho_low               52  5.0    0.001    0.001   20.018   20.019
 calculate_rho_elec                  52  6.0    0.508    0.542   19.837   19.837
 xc_pw_divergence                    51 10.0    0.002    0.002   18.255   19.095
 calculate_rho_atom                 104  9.0    1.248   17.941    1.248   17.941
 xc_rho_set_and_dset_create          51 10.0    0.438    0.522   16.918   17.908
 gspace_mixing                       50  5.0    0.489    0.521   17.370   17.371
 mp_sum_dv                         3913 11.3   16.827   17.234   16.827   17.234
 mp_sum_d                          1749  6.0   14.751   15.743   14.751   15.743
 yz_to_x                            517 12.8    1.716    2.070   12.117   14.215
 density_rs2pw                       52  7.0    0.003    0.004   13.771   14.091
 x_to_yz                            566 13.1    4.121    4.523   13.448   13.992
 broyden_mixing                      50  6.0   12.783   13.042   12.997   13.073
 calculate_vxc_atom                  52  8.0    0.023    0.456   12.659   12.659
 gaVxcgb_GC                         102  9.0    0.253   12.132    0.253   12.132
 sum_up_and_integrate                52  8.0    0.001    0.001   11.785   11.847
 integrate_v_rspace                  52  9.0    0.001    0.002   11.651   11.772
 potential_pw2rs                     52 10.0    0.027    0.029   10.520   10.644
 mp_sum_l                           866  5.8    6.666    9.355    6.666    9.355
 integrate_four_center_load          52 10.0    0.000    0.001    6.646    9.342
 hfx_load_balance                     1 11.0    0.000    0.000    6.646    9.342
 hfx_load_balance_range               1 12.0    0.000    0.000    6.642    9.338
 transfer_pw2rs                     261 10.5    0.004    0.005    8.041    8.173
 put_rho0_on_grid                    52  9.0    0.512    0.550    7.860    7.990
 mp2_main                             1  3.0    0.000    0.000    7.596    7.828
 transfer_rs2pw                     261  8.4    0.007    0.010    7.081    7.358
 mp_waitany                        6908 11.5    6.318    7.024    6.318    7.024
 grid_collocate_task_list            52  7.0    5.345    5.825    5.345    5.825
 transfer_pw2rs_250                 105 10.9    1.710    1.868    5.365    5.638
 mp2_gpw_main                         1  4.0    0.000    0.000    5.421    5.431
 transfer_rs2pw_250                 105 10.0    1.974    2.107    5.028    5.345
 mp_alltoall_d11v                  1024  9.5    2.981    5.320    2.981    5.320
 rpa_ri_compute_en                    1  5.0    0.000    0.000    4.303    4.303
 rpa_num_int                          1  6.0    0.001    0.001    4.285    4.285
 mp_alltoall_d45                     53 10.0    2.088    4.213    2.088    4.213
 pw_scatter_p                       566 12.1    4.049    4.105    4.049    4.105
 xc_functional_eval                 255 10.9    0.000    0.001    3.087    3.907
 pbe_lda_eval                       255 11.9    3.086    3.906    3.086    3.906
 integrate_vhg0_rspace               52  8.0    0.162    0.222    3.820    3.842
 pw_gather_p                        517 11.8    3.412    3.829    3.412    3.829
 compute_GW_self_energy             100  7.0    0.001    0.001    3.221    3.268
 pw_derive                          462 11.3    2.988    3.195    2.988    3.195
 compute_GW_self_energy_deep        100  8.0    2.245    2.288    3.107    3.154
 compute_vec_Sigma_x_minus_vxc_       1  4.0    0.000    0.000    1.969    1.969
 cp2k_distribution_to_z_slices       52  9.0    0.963    1.013    1.796    1.933
 pw_copy                            775 10.6    1.741    1.848    1.741    1.848
 fft_wrap_pw1pw2_90                 104 10.5    0.079    0.102    1.600    1.814
 mp_waitall_1                     16590 12.1    0.999    1.692    0.999    1.692
 pw_poisson_set                      53  8.9    0.002    0.002    1.653    1.679
 rs_grid_zero                       262 11.1    1.624    1.665    1.624    1.665
 transfer_pw2rs_90                   52 12.0    0.292    0.342    1.190    1.558
 Vh_1c_gg_integrals                  52  8.0    0.033    1.283    1.378    1.492
 pw_axpy                            515  9.3    1.127    1.211    1.127    1.211
 transfer_pw2rs_30                   52 12.0    0.711    0.805    1.098    1.204
 cp_fm_syevd                         57  6.9    0.000    0.001    1.185    1.188
 powell_optimize                 445170 11.0    1.116    1.158    1.116    1.158
 calc_pair_dist_radii                 1 10.0    0.596    0.601    1.126    1.148
 pw_copy_to_array                   517 11.8    1.029    1.147    1.029    1.147
 cp_fm_redistribute_end              57  7.9    0.584    1.141    0.588    1.144
 rs_gather_matrices                  52 10.0    0.004    0.014    1.060    1.136
 pw_poisson_rebuild                  52  9.0    0.000    0.000    1.099    1.125
 ps_wavelet_create                    1 10.0    0.000    0.000    1.099    1.125
 RS_z_slice_distribution              1 11.0    0.990    1.031    1.099    1.125
 grid_integrate_task_list            52 10.0    0.068    1.110    0.068    1.110
 cp_fm_syevd_base                    57  7.9    0.552    1.107    0.552    1.107
 parallel_gemm_fm                   322  8.7    0.000    0.001    1.081    1.103
 parallel_gemm_fm_gemm              322  9.7    0.000    0.001    1.081    1.103
 cp_fm_gemm                         322 10.7    1.080    1.102    1.080    1.102
 transfer_rs2pw_90                   52  9.0    0.266    0.301    0.948    1.102
 mp2_ri_gpw_compute_in                1  5.0    0.000    0.000    1.100    1.101
 mp2_ri_gpw_compute_in_loop           1  6.0    0.000    0.000    1.094    1.094
 mp_sum_dm                          368  7.6    0.715    1.085    0.715    1.085
 contract_B_L                         4  7.0    0.002    0.002    0.790    1.028
 mp2_eri_3c_integrate                 1  7.0    0.000    0.001    0.273    0.954
 integrate_set_3c                    69  8.0    0.251    0.891    0.272    0.954
 pw_integral_ab_c1d_c1d_gs           52  9.0    0.763    0.770    0.870    0.948
 mp_cart_create                     334 10.6    0.705    0.945    0.705    0.945
 dbt_pgrid_create_expert             84 10.8    0.000    0.000    0.691    0.929
 transfer_rs2pw_30                   52  9.0    0.409    0.428    0.836    0.857
 pw_copy_from_array                 566 12.1    0.687    0.851    0.687    0.851
 qs_scf_new_mos                      51  5.0    0.001    0.001    0.830    0.835
 start_bse_calculation                1  7.0    0.000    0.000    0.780    0.780
 init_scf_run                         1  3.0    0.000    0.000    0.641    0.642
 mp_sendrecv_dv                    4888 10.0    0.604    0.626    0.604    0.626
 scf_env_initial_rho_setup            1  4.0    0.000    0.000    0.625    0.625
 mp_irecv_dm3                      1884 11.5    0.298    0.598    0.298    0.598
 eigensolver_symm                    52  6.0    0.002    0.002    0.586    0.587
 pw_zero                            308 10.3    0.492    0.558    0.492    0.558
 mp_isend_dv                       6784 11.8    0.340    0.548    0.340    0.548
 integrate_four_center_getP          52 10.0    0.005    0.006    0.385    0.523
 mp_isend_dm3                      1884 11.5    0.227    0.503    0.227    0.503
 qs_init_subsys                       1  2.0    0.006    0.007    0.489    0.490
 calculate_rho0_atom                104  9.0    0.431    0.486    0.431    0.486
 qs_env_setup                         1  3.0    0.000    0.000    0.443    0.450
 qs_env_rebuild_pw_env                2  3.5    0.000    0.000    0.441    0.448
 pw_env_rebuild                       1  5.0    0.001    0.001    0.441    0.448
 pw_grid_setup                        4  6.0    0.000    0.000    0.415    0.423
 pw_grid_setup_internal               4  7.0    0.010    0.012    0.415    0.422
 transfer_pw2rs_10                   52 12.0    0.178    0.196    0.384    0.407
 mp_sum_i                            19  9.5    0.232    0.404    0.232    0.404
 restraint_control                    1  2.0    0.000    0.000    0.231    0.403
 mp2_main_alloc_hfx                   1  4.0    0.172    0.403    0.172    0.403
 mp_isendrecv_dv                   9776 12.0    0.193    0.376    0.193    0.376
 create_hermitian_form_of_ABBA        1  8.0    0.000    0.000    0.373    0.375
 cp_fm_power                          2  7.5    0.005    0.006    0.355    0.357
 diagonalize_C                        1  8.0    0.000    0.000    0.350    0.351
 pw_grid_sort                         4  8.0    0.221    0.224    0.316    0.320
 fft_wrap_pw1pw2_30                 104 10.5    0.012    0.014    0.302    0.312
 mp_max_i                           530  2.7    0.205    0.308    0.205    0.308
 scale_and_distribute               104 10.0    0.259    0.279    0.259    0.279
 transfer_rs2pw_10                   52  9.0    0.084    0.090    0.261    0.271
 create_qs_kind_set                   1  2.0    0.000    0.000    0.251    0.253
 read_qs_kind                         2  3.0    0.135    0.139    0.251    0.253
 rpa_num_int_RPA_matrix_operati     100  7.0    0.001    0.002    0.232    0.232
 calculate_rho_atom_coeff            52  6.0    0.028    0.067    0.181    0.181
 pw_scale                           205  9.5    0.127    0.172    0.127    0.172
 calc_mat_Q                         100  8.0    0.000    0.000    0.160    0.165
 update_ks_atom                      52  8.0    0.019    0.069    0.107    0.165
 integrate_four_center_dist_KS       52 10.0    0.006    0.008    0.163    0.164
 qs_energies_init_hamiltonians        1  3.0    0.000    0.000    0.156    0.156
 contract_S_to_Q                    100  9.0    0.000    0.001    0.150    0.155
 build_core_hamiltonian_matrix        1  4.0    0.000    0.000    0.151    0.151
 overlap_condnum                      1  5.0    0.000    0.000    0.147    0.149
 mixing_init                          1  5.0    0.145    0.149    0.148    0.149
 calculate_dm_sparse                 51  6.0    0.000    0.000    0.135    0.141
 cp_dbcsr_plus_fm_fm_t               51  7.0    0.001    0.001    0.134    0.140
 scf_post_calculation_gpw             1  3.0    0.000    0.000    0.128    0.128
 write_available_results              1  4.0    0.000    0.000    0.128    0.128
 write_mo_free_results                1  5.0    0.013    0.014    0.128    0.128
 copy_dbcsr_to_fm                    82  6.7    0.001    0.002    0.122    0.127
 mp_bcast_dm                        208  9.0    0.089    0.121    0.089    0.121
 dbcsr_multiply_generic              96  8.1    0.004    0.004    0.115    0.121
 parser_read_line                 28133  4.0    0.010    0.011    0.115    0.119
 parser_read_line_low                34  5.0    0.010    0.049    0.106    0.109
 cp_fm_cholesky_invert              101  8.0    0.103    0.106    0.103    0.106
 broadcast_input_information         34  6.0    0.027    0.030    0.096    0.101
 arnoldi_conjugate_gradient           5  6.0    0.003    0.003    0.101    0.101
 sort_shells                          4  9.0    0.095    0.096    0.095    0.096
 dbcsr_desymmetrize_deep             84  7.6    0.002    0.004    0.085    0.090
 fft_wrap_pw1pw2_10                 104 10.5    0.003    0.003    0.075    0.088
 dbt_total                            8  8.0    0.000    0.000    0.088    0.088
 dbcsr_complete_redistribute        188  8.5    0.009    0.013    0.086    0.087
 dbt_contract                         4  9.0    0.001    0.001    0.074    0.078
 xc_pw_smooth                        51 10.0    0.000    0.000    0.053    0.076
 mp_bcast_am_src                     34  7.0    0.035    0.064    0.040    0.071
 mp_alltoall_i22                    272  9.2    0.063    0.068    0.063    0.068
 -------------------------------------------------------------------------------

 The number of warnings for this run is : 1
 
 -------------------------------------------------------------------------------
  **** **** ******  **  PROGRAM ENDED AT                 2025-03-26 07:06:23.052
 ***** ** ***  *** **   PROGRAM RAN ON                              i05r06c01s01
 **    ****   ******    PROGRAM RAN BY                                   di38fab
 ***** **    ** ** **   PROGRAM PROCESS ID                               2198544
  **** **  *******  **  PROGRAM STOPPED IN /hppfs/scratch/04/di38fab/05_MOL/W4-1
                                           1+ALK/alcl/TZVP/GW+BSE/1e-4
