 DBCSR| CPU Multiplication driver                                           XSMM (U)
 DBCSR| Multrec recursion limit                                              512 (U)
 DBCSR| Multiplication stack size                                           1000 (D)
 DBCSR| Maximum elements for images                                    UNLIMITED (U)
 DBCSR| Multiplicative factor virtual images                                   1 (U)
 DBCSR| Use multiplication densification                                       T (D)
 DBCSR| Multiplication size stacks                                             3 (U)
 DBCSR| Use memory pool for CPU allocation                                     F (U)
 DBCSR| Number of 3D layers                                               SINGLE (U)
 DBCSR| Use MPI memory allocation                                              F (U)
 DBCSR| Use RMA algorithm                                                      F (U)
 DBCSR| Use Communication thread                                               T (U)
 DBCSR| Communication thread load                                             60 (D)
 DBCSR| MPI: My process id                                                     0
 DBCSR| MPI: Number of processes                                              32
 DBCSR| OMP: Current number of threads                                         8
 DBCSR| OMP: Max number of threads                                             8
 DBCSR| Split modifier for TAS multiplication algorithm                  1.0E+00 (U)


  **** **** ******  **  PROGRAM STARTED AT               2025-06-23 14:02:13.427
 ***** ** ***  *** **   PROGRAM STARTED ON                 n2cn0189.ab2021.local
 **    ****   ******    PROGRAM STARTED BY                              metdyn02
 ***** **    ** ** **   PROGRAM PROCESS ID                                487560
  **** **  *******  **  PROGRAM STARTED IN /scratch/hpc-prf-metdyn/metdyn02_Remi
                                           /10_MOL/05_MOL/aUKBqsEOTmq69kFe5R_nOg
                                           /5k_set_final_qzvp/SIDLIB/mini-SZV/TD
                                           DFT/RILIM

 CP2K| version string:                 CP2K version 2025.1 (Development Version)
 CP2K| source code revision number:                                  git:32ddf85
 CP2K| cp2kflags: omp libint fftw3 libxc libgrpp elpa parallel scalapack mpi_f08
 CP2K|             cosma xsmm plumed2 spglib libvori libbqb libvdwxc hdf5
 CP2K| is freely available from                            https://www.cp2k.org/
 CP2K| Program compiled at                         Mon May 19 11:32:37 CEST 2025
 CP2K| Program compiled on                                              n2login1
 CP2K| Program compiled for                                                local
 CP2K| Data directory path    /opt/software/pc2/EB-SW/software/CP2K/2024.1-foss-
 CP2K| Input file name                                                    GW.inp

 GLOBAL| Force Environment number                                              1
 GLOBAL| Basis set file name            /scratch/hpc-prf-metdyn/metdyn02_Remi/BA
 GLOBAL| Potential file name            /pc2/groups/hpc-prf-metdyn/metdyn02_Remi
 GLOBAL| MM Potential file name                                     MM_POTENTIAL
 GLOBAL| Coordinate file name                                      __STD_INPUT__
 GLOBAL| Method name                                                        CP2K
 GLOBAL| Project name                                                       MoS2
 GLOBAL| Run type                                                         ENERGY
 GLOBAL| FFT library                                                       FFTW3
 GLOBAL| Diagonalization library                                            ELPA
 GLOBAL| Cholesky decomposition library                                ScaLAPACK
 GLOBAL| DGEMM library                                                      BLAS
 GLOBAL| Minimum number of eigenvectors for ELPA usage                        16
 GLOBAL| Orthonormality check for eigenvectors                          DISABLED
 GLOBAL| Matrix multiplication library                                     COSMA
 GLOBAL| All-to-all communication in single precision                          F
 GLOBAL| FFTs using library dependent lengths                                  F
 GLOBAL| Grid backend                                                       AUTO
 GLOBAL| Global print level                                               MEDIUM
 GLOBAL| MPI I/O enabled                                                       T
 GLOBAL| Total number of message passing processes                            32
 GLOBAL| Number of threads for this process                                    8
 GLOBAL| This output is from process                                           0
 GLOBAL| OpenMP stack size per thread (OMP_STACKSIZE)                    default
 GLOBAL| CPU model name                          AMD EPYC 7763 64-Core Processor
 GLOBAL| CPUID                                                              1002

 MEMORY| system memory details [Kb]
 MEMORY|                        rank 0           min           max       average
 MEMORY| MemTotal            263897616     263897556     263897616     263897594
 MEMORY| MemFree             251796652     251600992     252513640     251928867
 MEMORY| Buffers                124332        118120        125276        123114
 MEMORY| Cached                7136676       6552384       7309216       6996659
 MEMORY| Slab                  1483924       1374404       1855124       1505196
 MEMORY| SReclaimable           332328        249940        690752        373297
 MEMORY| MemLikelyFree       259389988     259270664     259534344     259421938


 *** Fundamental physical constants (SI units) ***

 *** Literature: B. J. Mohr and B. N. Taylor,
 ***             CODATA recommended values of the fundamental physical
 ***             constants: 2006, Web Version 5.1
 ***             http://physics.nist.gov/constants

 Speed of light in vacuum [m/s]                             2.99792458000000E+08
 Magnetic constant or permeability of vacuum [N/A**2]       1.25663706143592E-06
 Electric constant or permittivity of vacuum [F/m]          8.85418781762039E-12
 Planck constant (h) [J*s]                                  6.62606896000000E-34
 Planck constant (h-bar) [J*s]                              1.05457162825177E-34
 Elementary charge [C]                                      1.60217648700000E-19
 Electron mass [kg]                                         9.10938215000000E-31
 Electron g factor [ ]                                     -2.00231930436220E+00
 Proton mass [kg]                                           1.67262163700000E-27
 Fine-structure constant                                    7.29735253760000E-03
 Rydberg constant [1/m]                                     1.09737315685270E+07
 Avogadro constant [1/mol]                                  6.02214179000000E+23
 Boltzmann constant [J/K]                                   1.38065040000000E-23
 Atomic mass unit [kg]                                      1.66053878200000E-27
 Bohr radius [m]                                            5.29177208590000E-11

 *** Conversion factors ***

 [u] -> [a.u.]                                              1.82288848426455E+03
 [Angstrom] -> [Bohr] = [a.u.]                              1.88972613288564E+00
 [a.u.] = [Bohr] -> [Angstrom]                              5.29177208590000E-01
 [a.u.] -> [s]                                              2.41888432650478E-17
 [a.u.] -> [fs]                                             2.41888432650478E-02
 [a.u.] -> [J]                                              4.35974393937059E-18
 [a.u.] -> [N]                                              8.23872205491840E-08
 [a.u.] -> [K]                                              3.15774647902944E+05
 [a.u.] -> [kJ/mol]                                         2.62549961709828E+03
 [a.u.] -> [kcal/mol]                                       6.27509468713739E+02
 [a.u.] -> [Pa]                                             2.94210107994716E+13
 [a.u.] -> [bar]                                            2.94210107994716E+08
 [a.u.] -> [atm]                                            2.90362800883016E+08
 [a.u.] -> [eV]                                             2.72113838565563E+01
 [a.u.] -> [Hz]                                             6.57968392072181E+15
 [a.u.] -> [1/cm] (wave numbers)                            2.19474631370540E+05
 [a.u./Bohr**2] -> [1/cm]                                   5.14048714338585E+03
 

 CELL_TOP| Volume [angstrom^3]:                                     27000.000000
 CELL_TOP| Vector a [angstrom    30.000     0.000     0.000   |a| =    30.000000
 CELL_TOP| Vector b [angstrom     0.000    30.000     0.000   |b| =    30.000000
 CELL_TOP| Vector c [angstrom     0.000     0.000    30.000   |c| =    30.000000
 CELL_TOP| Angle (b,c), alpha [degree]:                                90.000000
 CELL_TOP| Angle (a,c), beta  [degree]:                                90.000000
 CELL_TOP| Angle (a,b), gamma [degree]:                                90.000000
 CELL_TOP| Numerically orthorhombic:                                         YES
 CELL_TOP| Periodicity                                                      NONE

 GENERATE|  Preliminary Number of Bonds generated:                             0
 GENERATE|  Achieved consistency in connectivity generation.

 CELL| Volume [angstrom^3]:                                         27000.000000
 CELL| Vector a [angstrom]:      30.000     0.000     0.000   |a| =    30.000000
 CELL| Vector b [angstrom]:       0.000    30.000     0.000   |b| =    30.000000
 CELL| Vector c [angstrom]:       0.000     0.000    30.000   |c| =    30.000000
 CELL| Angle (b,c), alpha [degree]:                                    90.000000
 CELL| Angle (a,c), beta  [degree]:                                    90.000000
 CELL| Angle (a,b), gamma [degree]:                                    90.000000
 CELL| Numerically orthorhombic:                                             YES
 CELL| Periodicity                                                          NONE

 CELL_REF| Volume [angstrom^3]:                                     27000.000000
 CELL_REF| Vector a [angstrom    30.000     0.000     0.000   |a| =    30.000000
 CELL_REF| Vector b [angstrom     0.000    30.000     0.000   |b| =    30.000000
 CELL_REF| Vector c [angstrom     0.000     0.000    30.000   |c| =    30.000000
 CELL_REF| Angle (b,c), alpha [degree]:                                90.000000
 CELL_REF| Angle (a,c), beta  [degree]:                                90.000000
 CELL_REF| Angle (a,b), gamma [degree]:                                90.000000
 CELL_REF| Numerically orthorhombic:                                         YES
 CELL_REF| Periodicity                                                      NONE

 *******************************************************************************
 *******************************************************************************
 **                                                                           **
 **     #####                         ##              ##                      **
 **    ##   ##            ##          ##              ##                      **
 **   ##     ##                       ##            ######                    **
 **   ##     ##  ##   ##  ##   #####  ##  ##   ####   ##    #####    #####    **
 **   ##     ##  ##   ##  ##  ##      ## ##   ##      ##   ##   ##  ##   ##   **
 **   ##  ## ##  ##   ##  ##  ##      ####     ###    ##   ######   ######    **
 **    ##  ###   ##   ##  ##  ##      ## ##      ##   ##   ##       ##        **
 **     #######   #####   ##   #####  ##  ##  ####    ##    #####   ##        **
 **           ##                                                    ##        **
 **                                                                           **
 **                                                ... make the atoms dance   **
 **                                                                           **
 **            Copyright (C) by CP2K developers group (2000-2025)             **
 **                      J. Chem. Phys. 152, 194103 (2020)                    **
 **                                                                           **
 *******************************************************************************

 DFT| Spin restricted Kohn-Sham (RKS) calculation                            RKS
 DFT| Multiplicity                                                             1
 DFT| Number of spin states                                                    1
 DFT| Charge                                                                   0
 DFT| Self-interaction correction (SIC)                                       NO
 DFT| Cutoffs: density                                              1.000000E-10
 DFT|          gradient                                             1.000000E-10
 DFT|          tau                                                  1.000000E-10
 DFT|          cutoff_smoothing_range                               0.000000E+00
 DFT| XC density smoothing                                                  NONE
 DFT| XC derivatives                                                          PW

 FUNCTIONAL| PBE:
 FUNCTIONAL| J.P.Perdew, K.Burke, M.Ernzerhof, Phys. Rev. Letter, vol. 77, n 18,
 FUNCTIONAL|  pp. 3865-3868, (1996)sx=0.750sc=1.000{spin unpolarized}           


 QS| Method:                                                                GAPW
 QS| Density plane wave grid type                        NON-SPHERICAL FULLSPACE
 QS| Number of grid levels:                                                    4
 QS| Density cutoff [a.u.]:                                                250.0
 QS| Multi grid cutoff [a.u.]: 1) grid level                               250.0
 QS|                           2) grid level                                83.3
 QS|                           3) grid level                                27.8
 QS|                           4) grid level                                 9.3
 QS| Grid level progression factor:                                          3.0
 QS| Relative density cutoff [a.u.]:                                        50.0
 QS| Interaction thresholds: eps_pgf_orb:                                1.0E-12
 QS|                         eps_filter_matrix:                          0.0E+00
 QS|                         eps_core_charge:                            1.0E-14
 QS|                         eps_rho_gspace:                             1.0E-12
 QS|                         eps_rho_rspace:                             1.0E-12
 QS|                         eps_gvg_rspace:                             1.0E-06
 QS|                         eps_ppl:                                    1.0E-02
 QS|                         eps_ppnl:                                   1.0E-08
 QS| GAPW|      One center basis from orbital basis primitives
 QS| GAPW|                   eps_fit:                                    1.0E-04
 QS| GAPW|                   eps_iso:                                    1.0E-12
 QS| GAPW|                   eps_svd:                                    1.0E-08
 QS| GAPW|                   eps_cpc:                                    1.0E-12
 QS| GAPW|   atom-r-grid: quadrature:                                     GC_LOG
 QS| GAPW|      atom-s-grid:  max l :                                          2
 QS| GAPW|      max_l_rho0 :                                                   2


 ATOMIC KIND INFORMATION

  1. Atomic kind: F                                     Number of atoms:       3

     Orbital Basis Set                                    aug-SZV-MOLOPT-ae-mini

       Number of orbital shell sets:                                           2
       Number of orbital shells:                                               5
       Number of primitive Cartesian functions:                                8
       Number of Cartesian basis functions:                                    9
       Number of spherical basis functions:                                    9
       Norm type:                                                              2

       Normalised Cartesian orbitals:

                        Set   Shell   Orbital            Exponent    Coefficient

                          1       1    1s                6.464803      -0.288857
                                                         1.502281       0.386371
                                                         0.488588       0.291599
                                                         0.250000       0.000000
                                                         0.120000       0.000000

                          1       2    2s                6.464803       0.000000
                                                         1.502281      -0.205683
                                                         0.488588       0.226370
                                                         0.250000      -0.681175
                                                         0.120000       0.370388

                          1       3    2px               6.464803       2.291000
                                                         1.502281       1.440645
                                                         0.488588       0.228222
                                                         0.250000       0.000000
                                                         0.120000       0.000000
                          1       3    2py               6.464803       2.291000
                                                         1.502281       1.440645
                                                         0.488588       0.228222
                                                         0.250000       0.000000
                                                         0.120000       0.000000
                          1       3    2pz               6.464803       2.291000
                                                         1.502281       1.440645
                                                         0.488588       0.228222
                                                         0.250000       0.000000
                                                         0.120000       0.000000

                          1       4    3px               6.464803       0.000000
                                                         1.502281      -0.282020
                                                         0.488588       0.009318
                                                         0.250000      -0.007900
                                                         0.120000       0.104145
                          1       4    3py               6.464803       0.000000
                                                         1.502281      -0.282020
                                                         0.488588       0.009318
                                                         0.250000      -0.007900
                                                         0.120000       0.104145
                          1       4    3pz               6.464803       0.000000
                                                         1.502281      -0.282020
                                                         0.488588       0.009318
                                                         0.250000      -0.007900
                                                         0.120000       0.104145

                          2       1    1s              166.679130       5.102329
                                                        30.360812       4.934748
                                                         8.216821       1.537947

     RI Auxiliary Basis Set             RI_aug-SZV-MOLOPT-ae-mini_N_RI_055_s_p_d

       Number of orbital shell sets:                                          19
       Number of orbital shells:                                              19
       Number of primitive Cartesian functions:                               19
       Number of Cartesian basis functions:                                   61
       Number of spherical basis functions:                                   55
       Norm type:                                                              2

       Normalised Cartesian orbitals:

                        Set   Shell   Orbital            Exponent    Coefficient

                          1       1    1s                0.261857       0.260890

                          2       1    8px               0.267271       0.273924
                          2       1    8py               0.267271       0.273924
                          2       1    8pz               0.267271       0.273924

                          3       1   14dx2              0.303171       0.203874
                          3       1   14dxy              0.303171       0.353120
                          3       1   14dxz              0.303171       0.353120
                          3       1   14dy2              0.303171       0.203874
                          3       1   14dyz              0.303171       0.353120
                          3       1   14dz2              0.303171       0.203874

                          4       1    2s                0.519983       0.436417

                          5       1    9px               0.597200       0.748324
                          5       1    9py               0.597200       0.748324
                          5       1    9pz               0.597200       0.748324

                          6       1   15dx2              0.613258       0.699495
                          6       1   15dxy              0.613258       1.211561
                          6       1   15dxz              0.613258       1.211561
                          6       1   15dy2              0.613258       0.699495
                          6       1   15dyz              0.613258       1.211561
                          6       1   15dz2              0.613258       0.699495

                          7       1    3s                0.965318       0.694085

                          8       1   10px               1.248304       1.880792
                          8       1   10py               1.248304       1.880792
                          8       1   10pz               1.248304       1.880792

                          9       1   16dx2              1.257419       2.457533
                          9       1   16dxy              1.257419       4.256572
                          9       1   16dxz              1.257419       4.256572
                          9       1   16dy2              1.257419       2.457533
                          9       1   16dyz              1.257419       4.256572
                          9       1   16dz2              1.257419       2.457533

                         10       1    4s                1.757509       1.087886

                         11       1   11px               2.536777       4.563447
                         11       1   11py               2.536777       4.563447
                         11       1   11pz               2.536777       4.563447

                         12       1   17dx2              2.579536       8.641862
                         12       1   17dxy              2.579536      14.968144
                         12       1   17dxz              2.579536      14.968144
                         12       1   17dy2              2.579536       8.641862
                         12       1   17dyz              2.579536      14.968144
                         12       1   17dz2              2.579536       8.641862

                         13       1    5s                3.238188       1.720428

                         14       1   12px               5.260129      11.354960
                         14       1   12py               5.260129      11.354960
                         14       1   12pz               5.260129      11.354960

                         15       1   18dx2              5.260849      30.078570
                         15       1   18dxy              5.260849      52.097612
                         15       1   18dxz              5.260849      52.097612
                         15       1   18dy2              5.260849      30.078570
                         15       1   18dyz              5.260849      52.097612
                         15       1   18dz2              5.260849      30.078570

                         16       1    6s                5.902549       2.698919

                         17       1    7s               10.731164       4.225666

                         18       1   13px              10.738709      27.709595
                         18       1   13py              10.738709      27.709595
                         18       1   13pz              10.738709      27.709595

                         19       1   19dx2             10.784048     105.627648
                         19       1   19dxy             10.784048     182.952453
                         19       1   19dxz             10.784048     182.952453
                         19       1   19dy2             10.784048     105.627648
                         19       1   19dyz             10.784048     182.952453
                         19       1   19dz2             10.784048     105.627648

       Atomic covalent radius [Angstrom]:                                  0.720

       Atomic van der Waals radius [Angstrom]:                             1.470

     The atoms of this atomic kind are PAW atoms (GAPW):
       Hard Gaussian function radius:                                      1.512
       Rho0 radius:                                                        1.512
       Maximum GTO radius used for PAW projector construction:            24.566

     GAPW Soft Basis Set                             aug-SZV-MOLOPT-ae-mini_soft

       Number of orbital shell sets:                                           2
       Number of orbital shells:                                               5
       Number of primitive Cartesian functions:                                4
       Number of Cartesian basis functions:                                    9
       Number of spherical basis functions:                                    9
       Norm type:                                                              2

       Normalised Cartesian orbitals:

                        Set   Shell   Orbital            Exponent    Coefficient

                          1       1    1s                1.502281       0.386371
                                                         0.488588       0.291599
                                                         0.250000       0.000000
                                                         0.120000       0.000000

                          1       2    2s                1.502281      -0.205683
                                                         0.488588       0.226370
                                                         0.250000      -0.681175
                                                         0.120000       0.370388

                          1       3    2px               1.502281       1.440645
                                                         0.488588       0.228222
                                                         0.250000       0.000000
                                                         0.120000       0.000000
                          1       3    2py               1.502281       1.440645
                                                         0.488588       0.228222
                                                         0.250000       0.000000
                                                         0.120000       0.000000
                          1       3    2pz               1.502281       1.440645
                                                         0.488588       0.228222
                                                         0.250000       0.000000
                                                         0.120000       0.000000

                          1       4    3px               1.502281      -0.282020
                                                         0.488588       0.009318
                                                         0.250000      -0.007900
                                                         0.120000       0.104145
                          1       4    3py               1.502281      -0.282020
                                                         0.488588       0.009318
                                                         0.250000      -0.007900
                                                         0.120000       0.104145
                          1       4    3pz               1.502281      -0.282020
                                                         0.488588       0.009318
                                                         0.250000      -0.007900
                                                         0.120000       0.104145

                          2       1    1s         

     AE Potential information for                                            ALL

       Description:                                       All-electron potential
                                          Krack, Parrinello, PCCP 2, 2105 (2000)

       Gaussian exponent of the core charge distribution:              10.470541
       Electronic configuration (s p d ...):                           4   5   0

  2. Atomic kind: O                                     Number of atoms:       3

     Orbital Basis Set                                    aug-SZV-MOLOPT-ae-mini

       Number of orbital shell sets:                                           2
       Number of orbital shells:                                               5
       Number of primitive Cartesian functions:                                7
       Number of Cartesian basis functions:                                    9
       Number of spherical basis functions:                                    9
       Norm type:                                                              2

       Normalised Cartesian orbitals:

                        Set   Shell   Orbital            Exponent    Coefficient

                          1       1    1s                0.162491       0.000000
                                                         0.380388       0.241685
                                                         1.169596       0.320234
                                                         5.033151      -0.239413

                          1       2    2s                0.162491       0.289618
                                                         0.380388      -0.257800
                                                         1.169596      -0.000000
                                                         5.033151      -0.000284

                          1       3    2px               0.162491       0.000000
                                                         0.380388       0.166902
                                                         1.169596       1.053568
                                                         5.033151       1.675450
                          1       3    2py               0.162491       0.000000
                                                         0.380388       0.166902
                                                         1.169596       1.053568
                                                         5.033151       1.675450
                          1       3    2pz               0.162491       0.000000
                                                         0.380388       0.166902
                                                         1.169596       1.053568
                                                         5.033151       1.675450

                          1       4    3px               0.162491       0.166510
                                                         0.380388      -0.081234
                                                         1.169596      -0.994066
                                                         5.033151       0.014231
                          1       4    3py               0.162491       0.166510
                                                         0.380388      -0.081234
                                                         1.169596      -0.994066
                                                         5.033151       0.014231
                          1       4    3pz               0.162491       0.166510
                                                         0.380388      -0.081234
                                                         1.169596      -0.994066
                                                         5.033151       0.014231

                          2       1    1s              130.709321       4.251922
                                                        23.808866       4.112298
                                                         6.443608       1.281622

     RI Auxiliary Basis Set             RI_aug-SZV-MOLOPT-ae-mini_N_RI_047_s_p_d

       Number of orbital shell sets:                                          17
       Number of orbital shells:                                              17
       Number of primitive Cartesian functions:                               17
       Number of Cartesian basis functions:                                   52
       Number of spherical basis functions:                                   47
       Norm type:                                                              2

       Normalised Cartesian orbitals:

                        Set   Shell   Orbital            Exponent    Coefficient

                          1       1    1s                0.406227       0.362649

                          2       1    8px               0.406227       0.462276
                          2       1    8py               0.406227       0.462276
                          2       1    8pz               0.406227       0.462276

                          3       1   13dx2              0.406228       0.340217
                          3       1   13dxy              0.406228       0.589273
                          3       1   13dxz              0.406228       0.589273
                          3       1   13dy2              0.406228       0.340217
                          3       1   13dyz              0.406228       0.589273
                          3       1   13dz2              0.406228       0.340217

                          4       1    2s                0.672857       0.529483

                          5       1    9px               0.865963       1.190732
                          5       1    9py               0.865963       1.190732
                          5       1    9pz               0.865963       1.190732

                          6       1   14dx2              0.865963       1.279479
                          6       1   14dxy              0.865963       2.216122
                          6       1   14dxz              0.865963       2.216122
                          6       1   14dy2              0.865963       1.279479
                          6       1   14dyz              0.865963       2.216122
                          6       1   14dz2              0.865963       1.279479

                          7       1    3s                1.114489       0.773067

                          8       1    4s                1.845989       1.128709

                          9       1   10px               1.845989       3.067089
                          9       1   10py               1.845989       3.067089
                          9       1   10pz               1.845989       3.067089

                         10       1   15dx2              1.845989       4.811830
                         10       1   15dxy              1.845989       8.334333
                         10       1   15dxz              1.845989       8.334333
                         10       1   15dy2              1.845989       4.811830
                         10       1   15dyz              1.845989       8.334333
                         10       1   15dz2              1.845989       4.811830

                         11       1    5s                3.057611       1.647960

                         12       1   11px               3.935128       7.900211
                         12       1   11py               3.935128       7.900211
                         12       1   11pz               3.935128       7.900211

                         13       1   16dx2              3.935128      18.096203
                         13       1   16dxy              3.935128      31.343543
                         13       1   16dxz              3.935128      31.343543
                         13       1   16dy2              3.935128      18.096203
                         13       1   16dyz              3.935128      31.343543
                         13       1   16dz2              3.935128      18.096203

                         14       1    6s                5.064487       2.406089

                         15       1    7s                8.388585       3.512988

                         16       1   12px               8.388585      20.349370
                         16       1   12py               8.388585      20.349370
                         16       1   12pz               8.388585      20.349370

                         17       1   17dx2              8.388585      68.055730
                         17       1   17dxy              8.388585     117.875982
                         17       1   17dxz              8.388585     117.875982
                         17       1   17dy2              8.388585      68.055730
                         17       1   17dyz              8.388585     117.875982
                         17       1   17dz2              8.388585      68.055730

       Atomic covalent radius [Angstrom]:                                  0.730

       Atomic van der Waals radius [Angstrom]:                             1.520

     The atoms of this atomic kind are PAW atoms (GAPW):
       Hard Gaussian function radius:                                      1.512
       Rho0 radius:                                                        1.512
       Maximum GTO radius used for PAW projector construction:            24.566

     GAPW Soft Basis Set                             aug-SZV-MOLOPT-ae-mini_soft

       Number of orbital shell sets:                                           2
       Number of orbital shells:                                               5
       Number of primitive Cartesian functions:                                3
       Number of Cartesian basis functions:                                    9
       Number of spherical basis functions:                                    9
       Norm type:                                                              2

       Normalised Cartesian orbitals:

                        Set   Shell   Orbital            Exponent    Coefficient

                          1       1    1s                0.162491       0.000000
                                                         0.380388       0.241685
                                                         1.169596       0.320234

                          1       2    2s                0.162491       0.289618
                                                         0.380388      -0.257800
                                                         1.169596      -0.000000

                          1       3    2px               0.162491       0.000000
                                                         0.380388       0.166902
                                                         1.169596       1.053568
                          1       3    2py               0.162491       0.000000
                                                         0.380388       0.166902
                                                         1.169596       1.053568
                          1       3    2pz               0.162491       0.000000
                                                         0.380388       0.166902
                                                         1.169596       1.053568

                          1       4    3px               0.162491       0.166510
                                                         0.380388      -0.081234
                                                         1.169596      -0.994066
                          1       4    3py               0.162491       0.166510
                                                         0.380388      -0.081234
                                                         1.169596      -0.994066
                          1       4    3pz               0.162491       0.166510
                                                         0.380388      -0.081234
                                                         1.169596      -0.994066

                          2       1    1s         

     AE Potential information for                                            ALL

       Description:                                       All-electron potential
                                          Krack, Parrinello, PCCP 2, 2105 (2000)

       Gaussian exponent of the core charge distribution:               8.154466
       Electronic configuration (s p d ...):                           4   4   0

  3. Atomic kind: C                                     Number of atoms:       8

     Orbital Basis Set                                    aug-SZV-MOLOPT-ae-mini

       Number of orbital shell sets:                                           2
       Number of orbital shells:                                               5
       Number of primitive Cartesian functions:                                7
       Number of Cartesian basis functions:                                    9
       Number of spherical basis functions:                                    9
       Norm type:                                                              2

       Normalised Cartesian orbitals:

                        Set   Shell   Orbital            Exponent    Coefficient

                          1       1    2s                0.114558       0.000000
                                                         0.222289       0.161536
                                                         0.683483       0.214036
                                                         2.941249      -0.160017

                          1       2    3s                0.114558       0.000272
                                                         0.222289       0.256636
                                                         0.683483      -0.079244
                                                         2.941249       0.000032

                          1       3    3px               0.114558       0.000000
                                                         0.222289       0.085276
                                                         0.683483       0.538304
                                                         2.941249       0.856044
                          1       3    3py               0.114558       0.000000
                                                         0.222289       0.085276
                                                         0.683483       0.538304
                                                         2.941249       0.856044
                          1       3    3pz               0.114558       0.000000
                                                         0.222289       0.085276
                                                         0.683483       0.538304
                                                         2.941249       0.856044

                          1       4    4px               0.114558      -0.035043
                                                         0.222289      -0.159067
                                                         0.683483       0.106927
                                                         2.941249      -0.036832
                          1       4    4py               0.114558      -0.035043
                                                         0.222289      -0.159067
                                                         0.683483       0.106927
                                                         2.941249      -0.036832
                          1       4    4pz               0.114558      -0.035043
                                                         0.222289      -0.159067
                                                         0.683483       0.106927
                                                         2.941249      -0.036832

                          2       1    1s               71.616837       2.707801
                                                        13.045096       2.618883
                                                         3.530512       0.816191

     RI Auxiliary Basis Set             RI_aug-SZV-MOLOPT-ae-mini_N_RI_055_s_p_d

       Number of orbital shell sets:                                          19
       Number of orbital shells:                                              19
       Number of primitive Cartesian functions:                               19
       Number of Cartesian basis functions:                                   61
       Number of spherical basis functions:                                   55
       Norm type:                                                              2

       Normalised Cartesian orbitals:

                        Set   Shell   Orbital            Exponent    Coefficient

                          1       1    1s                0.286395       0.279019

                          2       1    8px               0.286395       0.298639
                          2       1    8py               0.286395       0.298639
                          2       1    8pz               0.286395       0.298639

                          3       1   14dx2              0.286395       0.184544
                          3       1   14dxy              0.286395       0.319639
                          3       1   14dxz              0.286395       0.319639
                          3       1   14dy2              0.286395       0.184544
                          3       1   14dyz              0.286395       0.319639
                          3       1   14dz2              0.286395       0.184544

                          4       1    2s                0.459764       0.397934

                          5       1    9px               0.505415       0.607436
                          5       1    9py               0.505415       0.607436
                          5       1    9pz               0.505415       0.607436

                          6       1   15dx2              0.505415       0.498648
                          6       1   15dxy              0.505415       0.863684
                          6       1   15dxz              0.505415       0.863684
                          6       1   15dy2              0.505415       0.498648
                          6       1   15dyz              0.505415       0.863684
                          6       1   15dz2              0.505415       0.498648

                          7       1    3s                0.738081       0.567529

                          8       1   10px               0.891931       1.235533
                          8       1   10py               0.891931       1.235533
                          8       1   10pz               0.891931       1.235533

                          9       1   16dx2              0.891931       1.347378
                          9       1   16dxy              0.891931       2.333728
                          9       1   16dxz              0.891931       2.333728
                          9       1   16dy2              0.891931       1.347378
                          9       1   16dyz              0.891931       2.333728
                          9       1   16dz2              0.891931       1.347378

                         10       1    4s                1.184876       0.809403

                         11       1   11px               1.574035       2.513091
                         11       1   11py               1.574035       2.513091
                         11       1   11pz               1.574035       2.513091

                         12       1   17dx2              1.574035       3.640699
                         12       1   17dxy              1.574035       6.305876
                         12       1   17dxz              1.574035       6.305876
                         12       1   17dy2              1.574035       3.640699
                         12       1   17dyz              1.574035       6.305876
                         12       1   17dz2              1.574035       3.640699

                         13       1    5s                1.902139       1.154361

                         14       1   12px               2.777778       5.111660
                         14       1   12py               2.777778       5.111660
                         14       1   12pz               2.777778       5.111660

                         15       1   18dx2              2.777778       9.837395
                         15       1   18dxy              2.777778      17.038868
                         15       1   18dxz              2.777778      17.038868
                         15       1   18dy2              2.777778       9.837395
                         15       1   18dyz              2.777778      17.038868
                         15       1   18dz2              2.777778       9.837395

                         16       1    6s                3.053594       1.646337

                         17       1    7s                4.902082       2.347986

                         18       1   13px               4.902082      10.397185
                         18       1   13py               4.902082      10.397185
                         18       1   13pz               4.902082      10.397185

                         19       1   19dx2              4.902082      26.581250
                         19       1   19dxy              4.902082      46.040076
                         19       1   19dxz              4.902082      46.040076
                         19       1   19dy2              4.902082      26.581250
                         19       1   19dyz              4.902082      46.040076
                         19       1   19dz2              4.902082      26.581250

       Atomic covalent radius [Angstrom]:                                  0.770

       Atomic van der Waals radius [Angstrom]:                             1.700

     The atoms of this atomic kind are PAW atoms (GAPW):
       Hard Gaussian function radius:                                      1.512
       Rho0 radius:                                                        1.512
       Maximum GTO radius used for PAW projector construction:            24.566

     GAPW Soft Basis Set                             aug-SZV-MOLOPT-ae-mini_soft

       Number of orbital shell sets:                                           2
       Number of orbital shells:                                               5
       Number of primitive Cartesian functions:                                5
       Number of Cartesian basis functions:                                    9
       Number of spherical basis functions:                                    9
       Norm type:                                                              2

       Normalised Cartesian orbitals:

                        Set   Shell   Orbital            Exponent    Coefficient

                          1       1    2s                0.114558       0.000000
                                                         0.222289       0.161536
                                                         0.683483       0.214036
                                                         2.941249      -0.160017

                          1       2    3s                0.114558       0.000272
                                                         0.222289       0.256636
                                                         0.683483      -0.079244
                                                         2.941249       0.000032

                          1       3    3px               0.114558       0.000000
                                                         0.222289       0.085276
                                                         0.683483       0.538304
                                                         2.941249       0.856044
                          1       3    3py               0.114558       0.000000
                                                         0.222289       0.085276
                                                         0.683483       0.538304
                                                         2.941249       0.856044
                          1       3    3pz               0.114558       0.000000
                                                         0.222289       0.085276
                                                         0.683483       0.538304
                                                         2.941249       0.856044

                          1       4    4px               0.114558      -0.035043
                                                         0.222289      -0.159067
                                                         0.683483       0.106927
                                                         2.941249      -0.036832
                          1       4    4py               0.114558      -0.035043
                                                         0.222289      -0.159067
                                                         0.683483       0.106927
                                                         2.941249      -0.036832
                          1       4    4pz               0.114558      -0.035043
                                                         0.222289      -0.159067
                                                         0.683483       0.106927
                                                         2.941249      -0.036832

                          2       1    1s                3.530512       0.816191

     AE Potential information for                                            ALL

       Description:                                       All-electron potential
                                          Krack, Parrinello, PCCP 2, 2105 (2000)

       Gaussian exponent of the core charge distribution:               4.109048
       Electronic configuration (s p d ...):                           4   2   0

  4. Atomic kind: N                                     Number of atoms:       1

     Orbital Basis Set                                    aug-SZV-MOLOPT-ae-mini

       Number of orbital shell sets:                                           2
       Number of orbital shells:                                               5
       Number of primitive Cartesian functions:                                7
       Number of Cartesian basis functions:                                    9
       Number of spherical basis functions:                                    9
       Norm type:                                                              2

       Normalised Cartesian orbitals:

                        Set   Shell   Orbital            Exponent    Coefficient

                          1       1    1s                0.112012       0.000000
                                                         0.285714       0.194997
                                                         0.878496       0.258372
                                                         3.780455      -0.193164

                          1       2    2s                0.112012      -0.247059
                                                         0.285714       0.355178
                                                         0.878496       0.105643
                                                         3.780455      -0.000189

                          1       3    2px               0.112012       0.000000
                                                         0.285714       0.116706
                                                         0.878496       0.736703
                                                         3.780455       1.171552
                          1       3    2py               0.112012       0.000000
                                                         0.285714       0.116706
                                                         0.878496       0.736703
                                                         3.780455       1.171552
                          1       3    2pz               0.112012       0.000000
                                                         0.285714       0.116706
                                                         0.878496       0.736703
                                                         3.780455       1.171552

                          1       4    3px               0.112012       0.096580
                                                         0.285714      -0.017996
                                                         0.878496       0.000162
                                                         3.780455       0.000013
                          1       4    3py               0.112012       0.096580
                                                         0.285714      -0.017996
                                                         0.878496       0.000162
                                                         3.780455       0.000013
                          1       4    3pz               0.112012       0.096580
                                                         0.285714      -0.017996
                                                         0.878496       0.000162
                                                         3.780455       0.000013

                          2       1    1s               99.106168       3.454863
                                                        18.052312       3.341413
                                                         4.885660       1.041372

     RI Auxiliary Basis Set             RI_aug-SZV-MOLOPT-ae-mini_N_RI_047_s_p_d

       Number of orbital shell sets:                                          17
       Number of orbital shells:                                              17
       Number of primitive Cartesian functions:                               17
       Number of Cartesian basis functions:                                   52
       Number of spherical basis functions:                                   47
       Norm type:                                                              2

       Normalised Cartesian orbitals:

                        Set   Shell   Orbital            Exponent    Coefficient

                          1       1    1s                0.280030       0.274355

                          2       1    8px               0.280030       0.290366
                          2       1    8py               0.280030       0.290366
                          2       1    8pz               0.280030       0.290366

                          3       1   13dx2              0.280030       0.177426
                          3       1   13dxy              0.280030       0.307311
                          3       1   13dxz              0.280030       0.307311
                          3       1   13dy2              0.280030       0.177426
                          3       1   13dyz              0.280030       0.307311
                          3       1   13dz2              0.280030       0.177426

                          4       1    2s                0.470510       0.404890

                          5       1    9px               0.609890       0.768254
                          5       1    9py               0.609890       0.768254
                          5       1    9pz               0.609890       0.768254

                          6       1   14dx2              0.609890       0.692787
                          6       1   14dxy              0.609890       1.199942
                          6       1   14dxz              0.609890       1.199942
                          6       1   14dy2              0.609890       0.692787
                          6       1   14dyz              0.609890       1.199942
                          6       1   14dz2              0.609890       0.692787

                          7       1    3s                0.790558       0.597531

                          8       1    4s                1.328308       0.881828

                          9       1   15dx2              1.328308       2.705093
                          9       1   15dxy              1.328308       4.685358
                          9       1   15dxz              1.328308       4.685358
                          9       1   15dy2              1.328308       2.705093
                          9       1   15dyz              1.328308       4.685358
                          9       1   15dz2              1.328308       2.705093

                         10       1   10px               1.328308       2.032654
                         10       1   10py               1.328308       2.032654
                         10       1   10pz               1.328308       2.032654

                         11       1    5s                2.231842       1.301391

                         12       1   11px               2.892982       5.378018
                         12       1   11py               2.892982       5.378018
                         12       1   11pz               2.892982       5.378018

                         13       1   16dx2              2.892982      10.562447
                         13       1   16dxy              2.892982      18.294694
                         13       1   16dxz              2.892982      18.294694
                         13       1   16dy2              2.892982      10.562447
                         13       1   16dyz              2.892982      18.294694
                         13       1   16dz2              2.892982      10.562447

                         14       1    6s                3.749973       1.920575

                         15       1   17dx2              6.300758      41.242682
                         15       1   17dxy              6.300758      71.434420
                         15       1   17dxz              6.300758      71.434420
                         15       1   17dy2              6.300758      41.242682
                         15       1   17dyz              6.300758      71.434420
                         15       1   17dz2              6.300758      41.242682

                         16       1    7s                6.300758       2.834358

                         17       1   12px               6.300758      14.229221
                         17       1   12py               6.300758      14.229221
                         17       1   12pz               6.300758      14.229221

       Atomic covalent radius [Angstrom]:                                  0.750

       Atomic van der Waals radius [Angstrom]:                             1.550

     The atoms of this atomic kind are PAW atoms (GAPW):
       Hard Gaussian function radius:                                      1.512
       Rho0 radius:                                                        1.512
       Maximum GTO radius used for PAW projector construction:            24.566

     GAPW Soft Basis Set                             aug-SZV-MOLOPT-ae-mini_soft

       Number of orbital shell sets:                                           2
       Number of orbital shells:                                               5
       Number of primitive Cartesian functions:                                4
       Number of Cartesian basis functions:                                    9
       Number of spherical basis functions:                                    9
       Norm type:                                                              2

       Normalised Cartesian orbitals:

                        Set   Shell   Orbital            Exponent    Coefficient

                          1       1    1s                0.112012       0.000000
                                                         0.285714       0.194997
                                                         0.878496       0.258372
                                                         3.780455      -0.193164

                          1       2    2s                0.112012      -0.247059
                                                         0.285714       0.355178
                                                         0.878496       0.105643
                                                         3.780455      -0.000189

                          1       3    2px               0.112012       0.000000
                                                         0.285714       0.116706
                                                         0.878496       0.736703
                                                         3.780455       1.171552
                          1       3    2py               0.112012       0.000000
                                                         0.285714       0.116706
                                                         0.878496       0.736703
                                                         3.780455       1.171552
                          1       3    2pz               0.112012       0.000000
                                                         0.285714       0.116706
                                                         0.878496       0.736703
                                                         3.780455       1.171552

                          1       4    3px               0.112012       0.096580
                                                         0.285714      -0.017996
                                                         0.878496       0.000162
                                                         3.780455       0.000013
                          1       4    3py               0.112012       0.096580
                                                         0.285714      -0.017996
                                                         0.878496       0.000162
                                                         3.780455       0.000013
                          1       4    3pz               0.112012       0.096580
                                                         0.285714      -0.017996
                                                         0.878496       0.000162
                                                         3.780455       0.000013

                          2       1    1s         

     AE Potential information for                                            ALL

       Description:                                       All-electron potential
                                          Krack, Parrinello, PCCP 2, 2105 (2000)

       Gaussian exponent of the core charge distribution:               5.979100
       Electronic configuration (s p d ...):                           4   3   0

  5. Atomic kind: H                                     Number of atoms:       4

     Orbital Basis Set                                    aug-SZV-MOLOPT-ae-mini

       Number of orbital shell sets:                                           1
       Number of orbital shells:                                               4
       Number of primitive Cartesian functions:                                7
       Number of Cartesian basis functions:                                    6
       Number of spherical basis functions:                                    6
       Norm type:                                                              2

       Normalised Cartesian orbitals:

                        Set   Shell   Orbital            Exponent    Coefficient

                          1       1    1s                0.065428       0.000000
                                                         0.100112       0.016532
                                                         0.243077       0.102760
                                                         0.625955       0.185857
                                                         1.822143       0.188385
                                                         6.513144       0.143430
                                                        35.523221       0.095030

                          1       2    2s                0.065428       0.083549
                                                         0.100112       0.009605
                                                         0.243077       0.002524
                                                         0.625955       0.013457
                                                         1.822143       0.000000
                                                         6.513144       0.000000
                                                        35.523221       0.000000

                          1       3    3s                0.065428       0.037407
                                                         0.100112      -0.169070
                                                         0.243077      -0.018899
                                                         0.625955       0.012806
                                                         1.822143       0.000000
                                                         6.513144       0.000000
                                                        35.523221       0.000000

                          1       4    2px               0.065428       0.059908
                                                         0.100112      -0.023770
                                                         0.243077       0.000032
                                                         0.625955       0.017779
                                                         1.822143       0.000000
                                                         6.513144       0.000000
                                                        35.523221       0.000000
                          1       4    2py               0.065428       0.059908
                                                         0.100112      -0.023770
                                                         0.243077       0.000032
                                                         0.625955       0.017779
                                                         1.822143       0.000000
                                                         6.513144       0.000000
                                                        35.523221       0.000000
                          1       4    2pz               0.065428       0.059908
                                                         0.100112      -0.023770
                                                         0.243077       0.000032
                                                         0.625955       0.017779
                                                         1.822143       0.000000
                                                         6.513144       0.000000
                                                        35.523221       0.000000

     RI Auxiliary Basis Set             RI_aug-SZV-MOLOPT-ae_N_RI_035_s_p_d_f_g_

       Number of orbital shell sets:                                          15
       Number of orbital shells:                                              15
       Number of primitive Cartesian functions:                               15
       Number of Cartesian basis functions:                                   37
       Number of spherical basis functions:                                   35
       Norm type:                                                              2

       Normalised Cartesian orbitals:

                        Set   Shell   Orbital            Exponent    Coefficient

                          1       1    1s                0.236911       0.242019

                          2       1    8px               0.347892       0.380843
                          2       1    8py               0.347892       0.380843
                          2       1    8pz               0.347892       0.380843

                          3       1    2s                0.423897       0.374417

                          4       1    9px               0.493166       0.589089
                          4       1    9py               0.493166       0.589089
                          4       1    9pz               0.493166       0.589089

                          5       1   14dx2              0.625366       0.723843
                          5       1   14dxy              0.625366       1.253733
                          5       1   14dxz              0.625366       1.253733
                          5       1   14dy2              0.625366       0.723843
                          5       1   14dyz              0.625366       1.253733
                          5       1   14dz2              0.625366       0.723843

                          6       1   10px               0.699103       0.911206
                          6       1   10py               0.699103       0.911206
                          6       1   10pz               0.699103       0.911206

                          7       1    3s                0.758464       0.579244

                          8       1   11px               0.991036       1.409457
                          8       1   11py               0.991036       1.409457
                          8       1   11pz               0.991036       1.409457

                          9       1   15dx2              1.286053       2.556305
                          9       1   15dxy              1.286053       4.427650
                          9       1   15dxz              1.286053       4.427650
                          9       1   15dy2              1.286053       2.556305
                          9       1   15dyz              1.286053       4.427650
                          9       1   15dz2              1.286053       2.556305

                         10       1    4s                1.357095       0.896123

                         11       1   12px               1.404875       2.180155
                         11       1   12py               1.404875       2.180155
                         11       1   12pz               1.404875       2.180155

                         12       1   13px               1.991527       3.372273
                         12       1   13py               1.991527       3.372273
                         12       1   13pz               1.991527       3.372273

                         13       1    5s                2.428204       1.386354

                         14       1    6s                4.344704       2.144768

                         15       1    7s                7.773833       3.318077

       Atomic covalent radius [Angstrom]:                                  0.320

       Atomic van der Waals radius [Angstrom]:                             1.090

     The atoms of this atomic kind are PAW atoms (GAPW):
       Hard Gaussian function radius:                                      1.200
       Rho0 radius:                                                        1.200
       Maximum GTO radius used for PAW projector construction:            24.566

     GAPW Soft Basis Set                             aug-SZV-MOLOPT-ae-mini_soft

       Number of orbital shell sets:                                           1
       Number of orbital shells:                                               4
       Number of primitive Cartesian functions:                                6
       Number of Cartesian basis functions:                                    6
       Number of spherical basis functions:                                    6
       Norm type:                                                              2

       Normalised Cartesian orbitals:

                        Set   Shell   Orbital            Exponent    Coefficient

                          1       1    1s                0.065428       0.000000
                                                         0.100112       0.016532
                                                         0.243077       0.102760
                                                         0.625955       0.185857
                                                         1.822143       0.188385
                                                         6.513144       0.000000

                          1       2    2s                0.065428       0.083549
                                                         0.100112       0.009605
                                                         0.243077       0.002524
                                                         0.625955       0.013457
                                                         1.822143       0.000000
                                                         6.513144       0.000000

                          1       3    3s                0.065428       0.037407
                                                         0.100112      -0.169070
                                                         0.243077      -0.018899
                                                         0.625955       0.012806
                                                         1.822143       0.000000
                                                         6.513144       0.000000

                          1       4    2px               0.065428       0.059908
                                                         0.100112      -0.023770
                                                         0.243077       0.000032
                                                         0.625955       0.017779
                                                         1.822143       0.000000
                                                         6.513144       0.000000
                          1       4    2py               0.065428       0.059908
                                                         0.100112      -0.023770
                                                         0.243077       0.000032
                                                         0.625955       0.017779
                                                         1.822143       0.000000
                                                         6.513144       0.000000
                          1       4    2pz               0.065428       0.059908
                                                         0.100112      -0.023770
                                                         0.243077       0.000032
                                                         0.625955       0.017779
[...]
 https://doi.org/10.1007/s002140050523

 J. P. Perdew, K. Burke, M. Ernzerhof.
 Phys. Rev. Lett. 77, 3865-3868 (1996).
 Generalized gradient approximation made simple.
 https://doi.org/10.1103/PhysRevLett.77.3865


 -------------------------------------------------------------------------------
 -                                                                             -
 -                                T I M I N G                                  -
 -                                                                             -
 -------------------------------------------------------------------------------
 SUBROUTINE                       CALLS  ASD         SELF TIME        TOTAL TIME
                                MAXIMUM       AVERAGE  MAXIMUM  AVERAGE  MAXIMUM
 CP2K                                 1  1.0    0.018    0.034  404.126  404.130
 qs_energies                          1  2.0    0.000    0.000  403.535  403.539
 qs_energies_properties               1  3.0    0.000    0.000  279.299  279.301
 tddfpt                               1  4.0    0.000    0.000  279.299  279.301
 tddfpt_energies                      1  5.0    0.000    0.000  279.191  279.193
 tddfpt_davidson_solver               1  6.0    0.001    0.001  278.055  278.057
 tddfpt_compute_Aop_evects            9  7.0    0.000    0.000  276.781  276.783
 fhxc_kernel                          9  8.0    0.006    0.007  264.049  264.051
 fft_wrap_pw1pw2                   5063 11.1    0.078    0.095  145.579  147.496
 fft_wrap_pw1pw2_250               3563 12.1    6.864    7.369  141.364  142.990
 pw_poisson_solve                   249  9.4    2.810    3.093  137.086  138.094
 scf_env_do_scf                       1  3.0    0.000    0.000  120.994  120.995
 scf_env_do_scf_inner_loop           69  4.0    0.001    0.003  120.994  120.995
 tddfpt_apply_coulomb               180  9.0    0.002    0.003  112.682  113.613
 fft3d_ps                          5063 13.1   51.672   57.020  107.531  110.623
 ps_wavelet_solve                   249 10.4   77.791   82.558   99.737  100.256
 qs_ks_update_qs_env                 69  5.0    0.000    0.001   87.249   87.253
 rebuild_ks_matrix                   69  6.0    0.000    0.000   87.244   87.248
 qs_ks_build_kohn_sham_matrix        69  7.0    0.009    0.010   87.244   87.248
 mp_alltoall_d54                    249 11.4   12.384   77.713   12.384   77.713
 xc_pw_derive                      1497 11.0    0.009    0.011   68.405   69.545
 qs_rho_update_rho_low              251  7.9    0.003    0.003   65.902   66.215
 calculate_rho_elec                 251  8.9    1.964    2.018   65.618   65.932
 tddfpt_apply_xc_analytic           180  9.0    0.455    0.496   64.270   64.723
 mp_alltoall_z22v                  5063 15.1   40.505   51.331   40.505   51.331
 xc_pw_divergence                   249 10.7    0.005    0.006   45.528   46.440
 xc_calc_2nd_deriv_analytical      1260 10.5    3.100    3.391   37.548   37.690
 density_rs2pw                      251  9.9    0.008    0.009   35.306   37.188
 yz_to_x                           2500 14.4    6.817    7.407   26.889   32.693
 x_to_yz                           2563 13.8    8.440    9.666   28.873   32.056
 grid_collocate_task_list           251  9.9   27.432   28.751   27.432   28.751
 integrate_v_rspace                 249  9.0    0.006    0.008   26.567   26.625
 qs_vxc_create                       69  8.0    0.001    0.001   26.352   26.353
 xc_vxc_pw_create                    69  9.0    0.730    0.777   26.352   26.352
 potential_pw2rs                    249 10.0    0.059    0.063   25.662   25.715
 transfer_rs2pw                    1255 10.8    0.017    0.020   17.443   19.427
 prepare_gapw_den                   250  8.7    0.003    0.004   18.987   19.163
 transfer_pw2rs                    1246 10.9    0.014    0.018   18.807   19.023
 put_rho0_on_grid                   250  9.7    1.996    2.083   18.561   18.737
 mp_waitany                       33022 12.8   14.896   17.523   14.896   17.523
 integrate_four_center              429  9.8    8.458   11.782   14.375   14.397
 gspace_mixing                       68  5.0    0.532    0.547   14.391   14.391
 mp_alltoall_d45                    250 11.4    9.054   14.241    9.054   14.241
 transfer_rs2pw_250                 502 11.8    5.025    5.412   11.931   13.977
 xc_rho_set_and_dset_create          70 10.0    0.411    0.449   12.851   13.398
 pw_gather_p                       2500 13.4   11.845   13.273   11.845   13.273
 transfer_pw2rs_250                 499 11.7    5.351    5.662   12.466   12.893
 tddfpt_apply_hfx                     9  8.0    0.002    0.002   12.016   12.016
 pw_scatter_p                      2563 12.8   11.385   11.892   11.385   11.892
 broyden_mixing                      68  6.0   10.874   11.103   11.178   11.236
 tddft_hfx_matrix                   360  9.0    0.004    0.005   10.841   10.855
 pw_derive                         2244 11.8    9.307    9.868    9.307    9.868
 mp_alltoall_d11v                 15884 11.6    4.569    9.539    4.569    9.539
 integrate_vhg0_rspace              249  9.4    0.086    0.123    8.007    8.030
 sum_up_and_integrate                69  8.0    0.001    0.001    7.599    7.607
 dbcsr_multiply_generic            1555 10.3    0.035    0.037    6.145    7.100
 mp_waitall_1                    147622 13.8    4.846    6.505    4.846    6.505
 mp_sync                           2272 11.5    3.381    6.492    3.381    6.492
 pw_copy                           3380 11.0    5.721    6.056    5.721    6.056
 pw_copy_to_array                  2500 13.4    4.681    5.601    4.681    5.601
 multiply_cannon                   1555 11.3    0.070    0.073    3.713    5.412
 mp_sum_d                          5872  7.6    2.801    5.367    2.801    5.367
 cp2k_distribution_to_z_slices      249 10.4    2.325    2.660    4.526    5.312
 pw_poisson_set                     250 10.4    0.005    0.005    5.021    5.296
 cp_dbcsr_plus_fm_fm_t              249  8.4    0.002    0.002    4.531    4.917
 cp_dbcsr_sm_fm_multiply           1126  8.6    0.013    0.014    4.841    4.854
 copy_dbcsr_to_fm                  1217  9.3    0.009    0.009    3.489    4.569
 multiply_cannon_loop              1555 12.3    0.041    0.042    2.865    4.509
 pw_axpy                           2678 10.8    3.972    4.318    3.972    4.318
 mp_alltoall_i22                   4962 11.4    2.727    3.900    2.727    3.900
 multiply_cannon_metrocomm3       12440 13.3    0.016    0.017    1.946    3.882
 fft_wrap_pw1pw2_90                 500 11.9    0.174    0.186    3.204    3.829
 dbcsr_desymmetrize_deep           1218 10.3    0.013    0.018    2.654    3.724
 rs_grid_zero                      1248 11.9    3.447    3.609    3.447    3.609
 hfx_ks_matrix                       69  8.0    0.001    0.001    3.543    3.561
 xc_functional_eval                1564 10.8    0.001    0.003    2.776    3.300
 pbe_lda_eval                      1564 11.8    2.775    3.297    2.775    3.297
 transfer_pw2rs_30                  249 12.0    1.725    1.872    2.992    3.130
 pw_copy_from_array                2563 12.8    2.975    3.128    2.975    3.128
 pw_integral_ab_c1d_c1d_gs          249 10.4    2.701    2.747    2.954    3.121
 transfer_pw2rs_90                  249 12.0    0.827    0.905    2.747    3.116
 cp_dbcsr_sm_fm_multiply_core      1126  9.6    0.002    0.002    1.692    2.974
 mp_sum_l                          5955 10.6    1.920    2.902    1.920    2.902
 pw_zero                           2760 10.6    2.613    2.793    2.613    2.793
 transfer_rs2pw_90                  251 11.9    0.812    0.919    2.642    2.771
 qs_energies_init_hamiltonians        1  3.0    0.000    0.000    2.371    2.371
 transfer_rs2pw_30                  251 11.9    0.810    0.934    2.068    2.235
 build_core_hamiltonian_matrix        1  4.0    0.000    0.000    2.067    2.067
 overlap_condnum                      1  5.0    0.000    0.000    2.066    2.066
 mp_sendrecv_dv                   15562 12.9    1.858    1.993    1.858    1.993
 mp_max_i                           722  5.1    0.707    1.607    0.707    1.607
 cp_fm_diag_elpa                    120  7.2    0.000    0.000    1.552    1.553
 Vh_1c_gg_integrals                 249  9.4    0.026    0.067    0.703    1.546
 integrate_four_center_main         429 10.8    0.060    0.070    1.441    1.510
 multiply_cannon_metrocomm1       12440 13.3    0.008    0.009    0.412    1.465
 integrate_four_center_bin        29781 11.8    1.380    1.454    1.380    1.454
 dbcsr_complete_redistribute       3744 10.5    0.087    0.116    1.311    1.358
 qs_scf_new_mos                      69  5.0    0.001    0.001    1.125    1.308
 cp_fm_redistribute_end             120  8.2    0.652    1.287    0.654    1.289
 mp_sum_dm                        14371 10.0    0.909    1.237    0.909    1.237
 cp_fm_diag_elpa_base               120  8.3    0.589    0.992    0.622    1.213
 mp_isend_dv                      50022 13.7    0.666    1.212    0.666    1.212
 calculate_xc_2nd_deriv_atom        180  9.0    0.112    0.341    0.307    1.210
 prepare_dr1dr                     1260 11.5    0.978    1.061    0.978    1.061
 make_m2s                          3110 11.3    0.018    0.019    0.403    0.995
 cp_fm_power                          1  6.0    0.000    0.000    0.872    0.984
 fft_wrap_pw1pw2_30                 500 11.9    0.038    0.040    0.747    0.975
 make_images                       3110 12.3    0.044    0.045    0.344    0.929
 rs_scatter_matrices                251  9.9    0.003    0.003    0.279    0.913
 transfer_rs2pw_10                  251 11.9    0.185    0.202    0.785    0.906
 multiply_cannon_metrocomm4       10885 13.3    0.017    0.019    0.416    0.902
 gaVxcgb_GC                         747  9.7    0.178    0.875    0.178    0.875
 grid_integrate_task_list           249 10.0    0.354    0.854    0.354    0.854
 init_scf_run                         1  3.0    0.000    0.000    0.801    0.801
 rs_gather_matrices                 249 10.0    0.005    0.006    0.544    0.794
 mp_allgather_i34                  1555 12.3    0.730    0.790    0.730    0.790
 calculate_dm_sparse                 69  6.0    0.000    0.000    0.551    0.733
 scf_env_initial_rho_setup            1  4.0    0.000    0.000    0.726    0.726
 hybrid_alltoall_any               4328 13.5    0.018    0.020    0.146    0.721
 tddfpt_apply_energy_diff             9  8.0    0.001    0.001    0.716    0.716
 make_images_data                  3110 13.3    0.019    0.022    0.114    0.703
 powell_optimize                 459749 11.0    0.663    0.684    0.663    0.684
 scale_and_distribute               498 11.4    0.576    0.647    0.576    0.647
 transfer_pw2rs_10                  249 12.0    0.251    0.274    0.589    0.635
 cp_fm_redistribute_start           120  8.2    0.266    0.595    0.275    0.605
 parallel_gemm_fm                  1647  8.3    0.001    0.002    0.540    0.565
 parallel_gemm_fm_cosma            1647  9.3    0.539    0.563    0.539    0.563
 mp_max_d                           231  8.4    0.281    0.557    0.281    0.557
 self_consistency_check              69  5.0    0.000    0.000    0.281    0.556
 cp_sm_mix                           69  6.0    0.000    0.000    0.280    0.556
 pw_poisson_rebuild                 249 10.4    0.000    0.000    0.526    0.552
 ps_wavelet_create                    1 10.0    0.000    0.000    0.526    0.552
 RS_z_slice_distribution              1 11.0    0.458    0.508    0.526    0.552
 tddfpt_compute_residual_vects        8  7.0    0.000    0.000    0.545    0.546
 mp_alltoall_i11v                 12450 11.5    0.259    0.536    0.259    0.536
 eigensolver_symm                    69  6.0    0.005    0.005    0.531    0.532
 calc_screening_functions             1 10.0    0.130    0.131    0.515    0.530
 tddfpt_orthonormalize_psi1_psi      10  6.9    0.010    0.011    0.483    0.483
 copy_fm_to_dbcsr                  2525  9.6    0.006    0.007    0.419    0.468
 mp_sum_dv                        23820  8.9    0.348    0.452    0.348    0.452
 pw_scale                           636  9.5    0.391    0.421    0.391    0.421
 calc_pair_dist_radii                 1 10.0    0.120    0.123    0.398    0.404
 calculate_vxc_atom                  69  8.0    0.046    0.090    0.395    0.395
 qs_init_subsys                       1  2.0    0.001    0.001    0.391    0.391
 qs_env_setup                         1  3.0    0.000    0.000    0.388    0.388
 qs_env_rebuild_pw_env                2  3.5    0.000    0.000    0.387    0.388
 pw_env_rebuild                       1  5.0    0.000    0.000    0.387    0.388
 pw_grid_setup                        4  6.0    0.000    0.000    0.377    0.377
 pw_grid_setup_internal               4  7.0    0.005    0.006    0.377    0.377
 tddfpt_construct_ground_state_       1  6.0    0.000    0.000    0.375    0.376
 calculate_rho_atom                1250  9.7    0.276    0.370    0.276    0.370
 cp_fm_write_unformatted             24  7.0    0.344    0.355    0.344    0.355
 tddfpt_print_nto_analysis            1  6.0    0.001    0.002    0.330    0.330
 pw_grid_sort                         4  8.0    0.219    0.225    0.307    0.316
 qs_env_update_s_mstruct              1  4.0    0.000    0.000    0.103    0.304
 qs_create_task_list                  1  5.0    0.000    0.000    0.103    0.303
 generate_qs_task_list                1  6.0    0.000    0.000    0.103    0.303
 arnoldi_conjugate_gradient           7  6.0    0.007    0.009    0.303    0.303
 distribute_tasks                     1  7.0    0.000    0.000    0.103    0.303
 calculate_ecore_overlap              1  4.0    0.000    0.000    0.200    0.303
 create_local_tasks                   1  8.0    0.000    0.000    0.102    0.302
 mp_alltoall_l11v                     1  9.0    0.102    0.302    0.102    0.302
 calculate_rho_atom_coeff           251  8.9    0.054    0.064    0.281    0.282
 write_mo_set_to_restart             69  5.0    0.009    0.266    0.267    0.270
 write_mo_set_low                     4  6.0    0.000    0.000    0.258    0.266
 cp_fm_uplo_to_full                 121  9.3    0.049    0.262    0.049    0.262
 create_kernel_env                    1  6.0    0.000    0.000    0.223    0.244
 xc_prep_2nd_deriv                    1  7.0    0.000    0.000    0.223    0.244
 mp_bcast_b_src                     189  7.8    0.024    0.229    0.024    0.229
 tddfpt_compute_ritz_vects            9  7.0    0.002    0.003    0.216    0.216
 fft_wrap_pw1pw2_10                 500 11.9    0.008    0.009    0.186    0.212
 xc_2nd_deriv_of_r                 1080 10.0    0.009    0.042    0.044    0.210
 cp_fm_norm                           2  6.0    0.117    0.202    0.117    0.202
 dbcsr_finalize                   10599 11.3    0.024    0.038    0.144    0.197
 mp_isendrecv_dv                  42036 12.3    0.087    0.194    0.087    0.194
 dbcsr_sym_matrix_vector_mult      2247  7.0    0.016    0.018    0.173    0.181
 cp_fm_geeig                         20  7.0    0.001    0.001    0.177    0.178
 mp_isend_dm3                      9006 12.8    0.071    0.166    0.071    0.166
 create_qs_kind_set                   1  2.0    0.000    0.000    0.157    0.158
 read_qs_kind                         5  3.0    0.062    0.096    0.157    0.158
 cp_fm_trace_a1b1t1_aa            16500  8.0    0.034    0.036    0.156    0.156
 update_ks_atom                     249  8.7    0.038    0.049    0.116    0.148
 mp_cart_sub                       2436 11.3    0.135    0.138    0.135    0.138
 mp_cart_create                    2467 10.5    0.124    0.131    0.125    0.133
 make_images_sizes                 3110 13.3    0.002    0.002    0.117    0.132
 mp_alltoall_i44                   3110 14.3    0.114    0.130    0.114    0.130
 integrate_four_center_dist_KS      429 10.8    0.017    0.024    0.116    0.124
 dbcsr_add_d                       3415  7.0    0.002    0.002    0.029    0.120
 dbcsr_add_anytype                 3415  8.0    0.003    0.013    0.027    0.119
 dbcsr_merge_all                   8922 12.3    0.054    0.071    0.083    0.107
 mp_bcast_dm                       9462  9.7    0.078    0.106    0.078    0.106
 tddfpt_dipole_operator               1  5.0    0.000    0.000    0.105    0.105
 parser_read_line                 27109  4.0    0.004    0.004    0.096    0.098
 cp_fm_syrk                           1  7.0    0.086    0.096    0.086    0.096
 dbcsr_create_new                 33854 11.1    0.066    0.070    0.088    0.094
 parser_read_line_low                41  5.0    0.002    0.024    0.091    0.094
 broadcast_input_information         41  6.0    0.007    0.007    0.089    0.092
 sort_shells                          4  9.0    0.088    0.092    0.088    0.092
 tddfpt_orthogonalize_psi1_psi0      10  6.9    0.000    0.000    0.070    0.092
 tddfpt_write_restart                 1  6.0    0.003    0.083    0.089    0.089
 offload_free_buffer                257 10.2    0.063    0.082    0.063    0.082
 integrate_four_center_getP         429 10.8    0.016    0.017    0.077    0.081
 xc_pw_smooth                        69 10.0    0.000    0.000    0.071    0.080
 mp_rank_compare                   5063 14.1    0.068    0.080    0.068    0.080
 dbcsr_iterator_start             52742 10.6    0.049    0.061    0.060    0.079
 mp_bcast_i_src                     164  7.0    0.068    0.072    0.068    0.072
 dbcsr_col_vec_to_rep_row          2247  8.0    0.007    0.008    0.063    0.072
 dbcsr_work_create                14805 12.2    0.033    0.045    0.051    0.070
 mixing_init                          1  5.0    0.064    0.069    0.069    0.069
 scf_post_calculation_gpw             1  3.0    0.000    0.000    0.069    0.069
 write_available_results              1  4.0    0.000    0.000    0.069    0.069
 write_mo_free_results                1  5.0    0.009    0.010    0.069    0.069
 copy_fm_to_dbcsr_bc               2525 10.6    0.015    0.016    0.055    0.060
 multiply_cannon_multrec          12440 13.3    0.022    0.053    0.027    0.057
 vxc_of_r_new                       414  9.0    0.002    0.009    0.012    0.056
 dbcsr_data_new                  148471 12.4    0.045    0.052    0.045    0.052
 mp_bcast_dv                       2322  9.0    0.041    0.052    0.041    0.052
 dbcsr_copy                       12772  8.5    0.022    0.024    0.047    0.051
 dbcsr_work_destroy_all           14805 13.1    0.023    0.032    0.035    0.050
 calculate_rho0_atom               1250  9.7    0.046    0.049    0.046    0.049
 integrate_four_center_load         429 10.8    0.000    0.001    0.028    0.048
 hfx_load_balance                     1 11.0    0.000    0.000    0.027    0.048
 dbcsr_data_release              219299 12.4    0.037    0.045    0.037    0.045
 cp_fm_triangular_multiply           60  8.0    0.042    0.042    0.042    0.042
 mp_irecv_dv                      49168 13.7    0.027    0.042    0.027    0.042
 hfx_load_balance_range               1 12.0    0.000    0.000    0.021    0.041
 tddfpt_print_excitation_analys       1  6.0    0.000    0.001    0.041    0.041
 -------------------------------------------------------------------------------

 The number of warnings for this run is : 1
 
 -------------------------------------------------------------------------------
  **** **** ******  **  PROGRAM ENDED AT                 2025-06-23 14:09:00.062
 ***** ** ***  *** **   PROGRAM RAN ON                     n2cn0189.ab2021.local
 **    ****   ******    PROGRAM RAN BY                                  metdyn02
 ***** **    ** ** **   PROGRAM PROCESS ID                                487560
  **** **  *******  **  PROGRAM STOPPED IN /scratch/hpc-prf-metdyn/metdyn02_Remi
                                           /10_MOL/05_MOL/aUKBqsEOTmq69kFe5R_nOg
                                           /5k_set_final_qzvp/SIDLIB/mini-SZV/TD
                                           DFT/RILIM
