 DBCSR| CPU Multiplication driver                                           BLAS (U)
 DBCSR| Multrec recursion limit                                              512 (U)
 DBCSR| Multiplication stack size                                           1000 (D)
 DBCSR| Maximum elements for images                                    UNLIMITED (U)
 DBCSR| Multiplicative factor virtual images                                   1 (U)
 DBCSR| Use multiplication densification                                       T (D)
 DBCSR| Multiplication size stacks                                             3 (U)
 DBCSR| Use memory pool for CPU allocation                                     F (U)
 DBCSR| Number of 3D layers                                               SINGLE (U)
 DBCSR| Use MPI memory allocation                                              F (U)
 DBCSR| Use RMA algorithm                                                      F (U)
 DBCSR| Use Communication thread                                               T (U)
 DBCSR| Communication thread load                                             75 (D)
 DBCSR| MPI: My process id                                                     0
 DBCSR| MPI: Number of processes                                              96
 DBCSR| OMP: Current number of threads                                         4
 DBCSR| OMP: Max number of threads                                             4
 DBCSR| Split modifier for TAS multiplication algorithm                  1.0E+00 (U)


  **** **** ******  **  PROGRAM STARTED AT               2025-04-28 07:41:27.795
 ***** ** ***  *** **   PROGRAM STARTED ON                          i04r10c05s08
 **    ****   ******    PROGRAM STARTED BY                               di38fab
 ***** **    ** ** **   PROGRAM PROCESS ID                               2057163
  **** **  *******  **  PROGRAM STARTED IN /hppfs/scratch/04/di38fab/07_MOL_non_
                                           aug/05_MOL_non_aug/05_MOL/W4-11+ALK/h
                                           ccf/cc-pVDZ/TDDFT

 CP2K| version string:                 CP2K version 2025.1 (Development Version)
 CP2K| source code revision number:                             unknown revision
 CP2K| cp2kflags: omp libint fftw3 libxc parallel scalapack max_contr=4         
 CP2K| is freely available from                            https://www.cp2k.org/
 CP2K| Program compiled at                         Thu Apr 10 16:20:23 CEST 2025
 CP2K| Program compiled on                                               login01
 CP2K| Program compiled for                                        Supermuc-foss
 CP2K| Data directory path                  /hppfs/work/pn36zo/di38fab/cp2k/data
 CP2K| Input file name                                                    GW.inp

 GLOBAL| Force Environment number                                              1
 GLOBAL| Basis set file name            /hppfs/scratch/04/di38fab/04_TMD/BASIS_A
 GLOBAL| Potential file name            /hppfs/work/pn36zo/di38fab/cp2k/data/ALL
 GLOBAL| MM Potential file name                                     MM_POTENTIAL
 GLOBAL| Coordinate file name                                      __STD_INPUT__
 GLOBAL| Method name                                                        CP2K
 GLOBAL| Project name                                                       MoS2
 GLOBAL| Run type                                                         ENERGY
 GLOBAL| FFT library                                                       FFTW3
 GLOBAL| Diagonalization library                                       ScaLAPACK
 GLOBAL| DGEMM library                                                      BLAS
 GLOBAL| Orthonormality check for eigenvectors                          DISABLED
 GLOBAL| Matrix multiplication library                                 ScaLAPACK
 GLOBAL| All-to-all communication in single precision                          F
 GLOBAL| FFTs using library dependent lengths                                  F
 GLOBAL| Grid backend                                                       AUTO
 GLOBAL| Global print level                                               MEDIUM
 GLOBAL| MPI I/O enabled                                                       T
 GLOBAL| Total number of message passing processes                            96
 GLOBAL| Number of threads for this process                                    4
 GLOBAL| This output is from process                                           0
 GLOBAL| OpenMP stack size per thread (OMP_STACKSIZE)                    default
 GLOBAL| CPU model name             Intel(R) Xeon(R) Platinum 8174 CPU @ 3.10GHz

 MEMORY| system memory details [Kb]
 MEMORY|                        rank 0           min           max       average
 MEMORY| MemTotal             98436660      98436660      98436736      98436683
 MEMORY| MemFree              85223792      83761268      85223792      84218079
 MEMORY| Buffers                     0             0             0             0
 MEMORY| Cached                2378012       2378012       2425340       2402966
 MEMORY| Slab                  1040520       1040520       1253668       1183883
 MEMORY| SReclaimable           236604        236604        274708        263074
 MEMORY| MemLikelyFree        87838408      86459228      87838408      86884120


 *** Fundamental physical constants (SI units) ***

 *** Literature: B. J. Mohr and B. N. Taylor,
 ***             CODATA recommended values of the fundamental physical
 ***             constants: 2006, Web Version 5.1
 ***             http://physics.nist.gov/constants

 Speed of light in vacuum [m/s]                             2.99792458000000E+08
 Magnetic constant or permeability of vacuum [N/A**2]       1.25663706143592E-06
 Electric constant or permittivity of vacuum [F/m]          8.85418781762039E-12
 Planck constant (h) [J*s]                                  6.62606896000000E-34
 Planck constant (h-bar) [J*s]                              1.05457162825177E-34
 Elementary charge [C]                                      1.60217648700000E-19
 Electron mass [kg]                                         9.10938215000000E-31
 Electron g factor [ ]                                     -2.00231930436220E+00
 Proton mass [kg]                                           1.67262163700000E-27
 Fine-structure constant                                    7.29735253760000E-03
 Rydberg constant [1/m]                                     1.09737315685270E+07
 Avogadro constant [1/mol]                                  6.02214179000000E+23
 Boltzmann constant [J/K]                                   1.38065040000000E-23
 Atomic mass unit [kg]                                      1.66053878200000E-27
 Bohr radius [m]                                            5.29177208590000E-11

 *** Conversion factors ***

 [u] -> [a.u.]                                              1.82288848426455E+03
 [Angstrom] -> [Bohr] = [a.u.]                              1.88972613288564E+00
 [a.u.] = [Bohr] -> [Angstrom]                              5.29177208590000E-01
 [a.u.] -> [s]                                              2.41888432650478E-17
 [a.u.] -> [fs]                                             2.41888432650478E-02
 [a.u.] -> [J]                                              4.35974393937059E-18
 [a.u.] -> [N]                                              8.23872205491840E-08
 [a.u.] -> [K]                                              3.15774647902944E+05
 [a.u.] -> [kJ/mol]                                         2.62549961709828E+03
 [a.u.] -> [kcal/mol]                                       6.27509468713739E+02
 [a.u.] -> [Pa]                                             2.94210107994716E+13
 [a.u.] -> [bar]                                            2.94210107994716E+08
 [a.u.] -> [atm]                                            2.90362800883016E+08
 [a.u.] -> [eV]                                             2.72113838565563E+01
 [a.u.] -> [Hz]                                             6.57968392072181E+15
 [a.u.] -> [1/cm] (wave numbers)                            2.19474631370540E+05
 [a.u./Bohr**2] -> [1/cm]                                   5.14048714338585E+03
 

 CELL_TOP| Volume [angstrom^3]:                                     27000.000000
 CELL_TOP| Vector a [angstrom    30.000     0.000     0.000   |a| =    30.000000
 CELL_TOP| Vector b [angstrom     0.000    30.000     0.000   |b| =    30.000000
 CELL_TOP| Vector c [angstrom     0.000     0.000    30.000   |c| =    30.000000
 CELL_TOP| Angle (b,c), alpha [degree]:                                90.000000
 CELL_TOP| Angle (a,c), beta  [degree]:                                90.000000
 CELL_TOP| Angle (a,b), gamma [degree]:                                90.000000
 CELL_TOP| Numerically orthorhombic:                                         YES
 CELL_TOP| Periodicity                                                      NONE

 GENERATE|  Preliminary Number of Bonds generated:                             0
 GENERATE|  Achieved consistency in connectivity generation.

 CELL| Volume [angstrom^3]:                                         27000.000000
 CELL| Vector a [angstrom]:      30.000     0.000     0.000   |a| =    30.000000
 CELL| Vector b [angstrom]:       0.000    30.000     0.000   |b| =    30.000000
 CELL| Vector c [angstrom]:       0.000     0.000    30.000   |c| =    30.000000
 CELL| Angle (b,c), alpha [degree]:                                    90.000000
 CELL| Angle (a,c), beta  [degree]:                                    90.000000
 CELL| Angle (a,b), gamma [degree]:                                    90.000000
 CELL| Numerically orthorhombic:                                             YES
 CELL| Periodicity                                                          NONE

 CELL_REF| Volume [angstrom^3]:                                     27000.000000
 CELL_REF| Vector a [angstrom    30.000     0.000     0.000   |a| =    30.000000
 CELL_REF| Vector b [angstrom     0.000    30.000     0.000   |b| =    30.000000
 CELL_REF| Vector c [angstrom     0.000     0.000    30.000   |c| =    30.000000
 CELL_REF| Angle (b,c), alpha [degree]:                                90.000000
 CELL_REF| Angle (a,c), beta  [degree]:                                90.000000
 CELL_REF| Angle (a,b), gamma [degree]:                                90.000000
 CELL_REF| Numerically orthorhombic:                                         YES
 CELL_REF| Periodicity                                                      NONE

 *******************************************************************************
 *******************************************************************************
 **                                                                           **
 **     #####                         ##              ##                      **
 **    ##   ##            ##          ##              ##                      **
 **   ##     ##                       ##            ######                    **
 **   ##     ##  ##   ##  ##   #####  ##  ##   ####   ##    #####    #####    **
 **   ##     ##  ##   ##  ##  ##      ## ##   ##      ##   ##   ##  ##   ##   **
 **   ##  ## ##  ##   ##  ##  ##      ####     ###    ##   ######   ######    **
 **    ##  ###   ##   ##  ##  ##      ## ##      ##   ##   ##       ##        **
 **     #######   #####   ##   #####  ##  ##  ####    ##    #####   ##        **
 **           ##                                                    ##        **
 **                                                                           **
 **                                                ... make the atoms dance   **
 **                                                                           **
 **            Copyright (C) by CP2K developers group (2000-2025)             **
 **                      J. Chem. Phys. 152, 194103 (2020)                    **
 **                                                                           **
 *******************************************************************************

 DFT| Spin restricted Kohn-Sham (RKS) calculation                            RKS
 DFT| Multiplicity                                                             1
 DFT| Number of spin states                                                    1
 DFT| Charge                                                                   0
 DFT| Self-interaction correction (SIC)                                       NO
 DFT| Cutoffs: density                                              1.000000E-10
 DFT|          gradient                                             1.000000E-10
 DFT|          tau                                                  1.000000E-10
 DFT|          cutoff_smoothing_range                               0.000000E+00
 DFT| XC density smoothing                                                  NONE
 DFT| XC derivatives                                                          PW

 FUNCTIONAL| PBE:
 FUNCTIONAL| J.P.Perdew, K.Burke, M.Ernzerhof, Phys. Rev. Letter, vol. 77, n 18,
 FUNCTIONAL|  pp. 3865-3868, (1996)sx=0.750sc=1.000{spin unpolarized}           


 QS| Method:                                                                GAPW
 QS| Density plane wave grid type                        NON-SPHERICAL FULLSPACE
 QS| Number of grid levels:                                                    4
 QS| Density cutoff [a.u.]:                                                250.0
 QS| Multi grid cutoff [a.u.]: 1) grid level                               250.0
 QS|                           2) grid level                                83.3
 QS|                           3) grid level                                27.8
 QS|                           4) grid level                                 9.3
 QS| Grid level progression factor:                                          3.0
 QS| Relative density cutoff [a.u.]:                                        50.0
 QS| Interaction thresholds: eps_pgf_orb:                                1.0E-12
 QS|                         eps_filter_matrix:                          0.0E+00
 QS|                         eps_core_charge:                            1.0E-14
 QS|                         eps_rho_gspace:                             1.0E-12
 QS|                         eps_rho_rspace:                             1.0E-12
 QS|                         eps_gvg_rspace:                             1.0E-06
 QS|                         eps_ppl:                                    1.0E-02
 QS|                         eps_ppnl:                                   1.0E-08
 QS| GAPW|      One center basis from orbital basis primitives
 QS| GAPW|                   eps_fit:                                    1.0E-04
 QS| GAPW|                   eps_iso:                                    1.0E-12
 QS| GAPW|                   eps_svd:                                    1.0E-08
 QS| GAPW|                   eps_cpc:                                    1.0E-12
 QS| GAPW|   atom-r-grid: quadrature:                                     GC_LOG
 QS| GAPW|      atom-s-grid:  max l :                                          4
 QS| GAPW|      max_l_rho0 :                                                   2


 ATOMIC KIND INFORMATION

  1. Atomic kind: C                                     Number of atoms:       2

     Orbital Basis Set                                                   cc-pVDZ

       Number of orbital shell sets:                                           3
       Number of orbital shells:                                               6
       Number of primitive Cartesian functions:                               14
       Number of Cartesian basis functions:                                   15
       Number of spherical basis functions:                                   14
       Norm type:                                                              2

       Normalised Cartesian orbitals:

                        Set   Shell   Orbital            Exponent    Coefficient

                          1       1    1px               9.439000       0.898722
                                                         2.002000       0.711071
                                                         0.545600       0.339917
                                                         0.151700       0.063270
                          1       1    1py               9.439000       0.898722
                                                         2.002000       0.711071
                                                         0.545600       0.339917
                                                         0.151700       0.063270
                          1       1    1pz               9.439000       0.898722
                                                         2.002000       0.711071
                                                         0.545600       0.339917
                                                         0.151700       0.063270

                          1       2    2px               9.439000       0.000000
                                                         2.002000       0.000000
                                                         0.545600       0.000000
                                                         0.151700       0.134950
                          1       2    2py               9.439000       0.000000
                                                         2.002000       0.000000
                                                         0.545600       0.000000
                                                         0.151700       0.134950
                          1       2    2pz               9.439000       0.000000
                                                         2.002000       0.000000
                                                         0.545600       0.000000
                                                         0.151700       0.134950

                          2       1    1s             6665.000000       0.363803
                                                      1000.000000       0.675392
                                                       228.000000       1.132301
                                                        64.710000       1.654004
                                                        21.060000       1.924978
                                                         7.495000       1.448149
                                                         2.797000       0.439427
                                                         0.521500       0.006650
                                                         0.159600      -0.000574

                          2       2    2s             6665.000000      -0.076756
                                                      1000.000000      -0.146257
                                                       228.000000      -0.239407
                                                        64.710000      -0.379069
                                                        21.060000      -0.448104
                                                         7.495000      -0.484201
                                                         2.797000      -0.196168
                                                         0.521500       0.238162
                                                         0.159600       0.104468

                          2       3    3s             6665.000000       0.000000
                                                      1000.000000       0.000000
                                                       228.000000       0.000000
                                                        64.710000       0.000000
                                                        21.060000       0.000000
                                                         7.495000       0.000000
                                                         2.797000       0.000000
                                                         0.521500       0.000000
                                                         0.159600       0.179964

                          3       1    1dx2              0.550000       0.578155
                          3       1    1dxy              0.550000       1.001394
                          3       1    1dxz              0.550000       1.001394
                          3       1    1dy2              0.550000       0.578155
                          3       1    1dyz              0.550000       1.001394
                          3       1    1dz2              0.550000       0.578155

     RI Auxiliary Basis Set                                        cc-pVDZ-RIFIT

       Number of orbital shell sets:                                          18
       Number of orbital shells:                                              18
       Number of primitive Cartesian functions:                               18
       Number of Cartesian basis functions:                                   66
       Number of spherical basis functions:                                   56
       Norm type:                                                              2

       Normalised Cartesian orbitals:

                        Set   Shell   Orbital            Exponent    Coefficient

                          1       1    1s                0.206796       0.218558

                          2       1    1px               0.321667       0.345301
                          2       1    1py               0.321667       0.345301
                          2       1    1pz               0.321667       0.345301

                          3       1    1dx2              0.340842       0.250252
                          3       1    1dxy              0.340842       0.433449
                          3       1    1dxz              0.340842       0.433449
                          3       1    1dy2              0.340842       0.250252
                          3       1    1dyz              0.340842       0.433449
                          3       1    1dz2              0.340842       0.250252

                          4       1    1s                0.409072       0.364552

                          5       1    1px               0.754465       1.002280
                          5       1    1py               0.754465       1.002280
                          5       1    1pz               0.754465       1.002280

                          6       1    1s                0.782697       0.593069

                          7       1    1fx3              0.895756       1.149162
                          7       1    1fx2y             0.895756       2.569605
                          7       1    1fx2z             0.895756       2.569605
                          7       1    1fxy2             0.895756       2.569605
                          7       1    1fxyz             0.895756       4.450686
                          7       1    1fxz2             0.895756       2.569605
                          7       1    1fy3              0.895756       1.149162
                          7       1    1fy2z             0.895756       2.569605
                          7       1    1fyz2             0.895756       2.569605
                          7       1    1fz3              0.895756       1.149162

                          8       1    1dx2              0.922515       1.429266
                          8       1    1dxy              0.922515       2.475561
                          8       1    1dxz              0.922515       2.475561
                          8       1    1dy2              0.922515       1.429266
                          8       1    1dyz              0.922515       2.475561
                          8       1    1dz2              0.922515       1.429266

                          9       1    1s                1.513330       0.972434

                         10       1    1px               1.720600       2.808924
                         10       1    1py               1.720600       2.808924
                         10       1    1pz               1.720600       2.808924

                         11       1    1dx2              2.678440       9.230024
                         11       1    1dxy              2.678440      15.986870
                         11       1    1dxz              2.678440      15.986870
                         11       1    1dy2              2.678440       9.230024
                         11       1    1dyz              2.678440      15.986870
                         11       1    1dz2              2.678440       9.230024

                         12       1    1fx3              2.742930      14.254027
                         12       1    1fx2y             2.742930      31.872974
                         12       1    1fx2z             2.742930      31.872974
                         12       1    1fxy2             2.742930      31.872974
                         12       1    1fxyz             2.742930      55.205610
                         12       1    1fxz2             2.742930      31.872974
                         12       1    1fy3              2.742930      14.254027
                         12       1    1fy2z             2.742930      31.872974
                         12       1    1fyz2             2.742930      31.872974
                         12       1    1fz3              2.742930      14.254027

                         13       1    1s                4.772770       2.301378

                         14       1    1px               6.005230      13.399918
                         14       1    1py               6.005230      13.399918
                         14       1    1pz               6.005230      13.399918

                         15       1    1dx2             10.171500      95.352748
                         15       1    1dxy             10.171500     165.155804
                         15       1    1dxz             10.171500     165.155804
                         15       1    1dy2             10.171500      95.352748
                         15       1    1dyz             10.171500     165.155804
                         15       1    1dz2             10.171500      95.352748

                         16       1    1s               13.804500       5.104176

                         17       1    1px              20.885100      63.640823
                         17       1    1py              20.885100      63.640823
                         17       1    1pz              20.885100      63.640823

                         18       1    1s               62.745300      15.888979

       Atomic covalent radius [Angstrom]:                                  0.770

       Atomic van der Waals radius [Angstrom]:                             1.700

     The atoms of this atomic kind are PAW atoms (GAPW):
       Hard Gaussian function radius:                                      1.512
       Rho0 radius:                                                        1.512
       Maximum GTO radius used for PAW projector construction:            24.566

     GAPW Soft Basis Set                                            cc-pVDZ_soft

       Number of orbital shell sets:                                           3
       Number of orbital shells:                                               6
       Number of primitive Cartesian functions:                                7
       Number of Cartesian basis functions:                                   15
       Number of spherical basis functions:                                   14
       Norm type:                                                              2

       Normalised Cartesian orbitals:

                        Set   Shell   Orbital            Exponent    Coefficient

                          1       1    1px               2.002000       0.711071
                                                         0.545600       0.339917
                                                         0.151700       0.063270
                          1       1    1py               2.002000       0.711071
                                                         0.545600       0.339917
                                                         0.151700       0.063270
                          1       1    1pz               2.002000       0.711071
                                                         0.545600       0.339917
                                                         0.151700       0.063270

                          1       2    2px               2.002000       0.000000
                                                         0.545600       0.000000
                                                         0.151700       0.134950
                          1       2    2py               2.002000       0.000000
                                                         0.545600       0.000000
                                                         0.151700       0.134950
                          1       2    2pz               2.002000       0.000000
                                                         0.545600       0.000000
                                                         0.151700       0.134950

                          2       1    1s                2.797000       0.439427
                                                         0.521500       0.006650
                                                         0.159600      -0.000574

                          2       2    2s                2.797000      -0.196168
                                                         0.521500       0.238162
                                                         0.159600       0.104468

                          2       3    3s                2.797000       0.000000
                                                         0.521500       0.000000
                                                         0.159600       0.179964

                          3       1    1dx2              0.550000       0.578155
                          3       1    1dxy              0.550000       1.001394
                          3       1    1dxz              0.550000       1.001394
                          3       1    1dy2              0.550000       0.578155
                          3       1    1dyz              0.550000       1.001394
                          3       1    1dz2              0.550000       0.578155

     AE Potential information for                                            ALL

       Description:                                       All-electron potential
                                          Krack, Parrinello, PCCP 2, 2105 (2000)

       Gaussian exponent of the core charge distribution:               4.109048
       Electronic configuration (s p d ...):                           4   2   0

  2. Atomic kind: H                                     Number of atoms:       1

     Orbital Basis Set                                                   cc-pVDZ

       Number of orbital shell sets:                                           2
       Number of orbital shells:                                               3
       Number of primitive Cartesian functions:                                5
       Number of Cartesian basis functions:                                    5
       Number of spherical basis functions:                                    5
       Norm type:                                                              2

       Normalised Cartesian orbitals:

                        Set   Shell   Orbital            Exponent    Coefficient

                          1       1    1s               13.010000       0.096107
                                                         1.962000       0.163020
                                                         0.444600       0.185545
                                                         0.122000       0.073744

                          1       2    2s               13.010000       0.000000
                                                         1.962000       0.000000
                                                         0.444600       0.000000
                                                         0.122000       0.147123

                          2       1    1px               0.727000       0.956881
                          2       1    1py               0.727000       0.956881
                          2       1    1pz               0.727000       0.956881

     RI Auxiliary Basis Set                                        cc-pVDZ-RIFIT

       Number of orbital shell sets:                                           6
       Number of orbital shells:                                               6
       Number of primitive Cartesian functions:                                6
       Number of Cartesian basis functions:                                   15
       Number of spherical basis functions:                                   14
       Norm type:                                                              2

       Normalised Cartesian orbitals:

                        Set   Shell   Orbital            Exponent    Coefficient

                          1       1    1s                0.291662       0.282859

                          2       1    1px               0.986401       1.401222
                          2       1    1py               0.986401       1.401222
                          2       1    1pz               0.986401       1.401222

                          3       1    1s                1.142965       0.787834

                          4       1    1dx2              1.172083       2.173136
                          4       1    1dxy              1.172083       3.763982
                          4       1    1dxz              1.172083       3.763982
                          4       1    1dy2              1.172083       2.173136
                          4       1    1dyz              1.172083       3.763982
                          4       1    1dz2              1.172083       2.173136

                          5       1    1px               1.914964       3.211004
                          5       1    1py               1.914964       3.211004
                          5       1    1pz               1.914964       3.211004

                          6       1    1s                5.115890       2.424381

       Atomic covalent radius [Angstrom]:                                  0.320

       Atomic van der Waals radius [Angstrom]:                             1.090

     The atoms of this atomic kind are PAW atoms (GAPW):
       Hard Gaussian function radius:                                      1.200
       Rho0 radius:                                                        1.200
       Maximum GTO radius used for PAW projector construction:            24.566

     GAPW Soft Basis Set                                            cc-pVDZ_soft

       Number of orbital shell sets:                                           2
       Number of orbital shells:                                               3
       Number of primitive Cartesian functions:                                4
       Number of Cartesian basis functions:                                    5
       Number of spherical basis functions:                                    5
       Norm type:                                                              2

       Normalised Cartesian orbitals:

                        Set   Shell   Orbital            Exponent    Coefficient

                          1       1    1s                1.962000       0.163020
                                                         0.444600       0.185545
                                                         0.122000       0.073744

                          1       2    2s                1.962000       0.000000
                                                         0.444600       0.000000
                                                         0.122000       0.147123

                          2       1    1px               0.727000       0.956881
                          2       1    1py               0.727000       0.956881
                          2       1    1pz               0.727000       0.956881

     AE Potential information for                                            ALL

       Description:                                       All-electron potential
                                          Krack, Parrinello, PCCP 2, 2105 (2000)

       Gaussian exponent of the core charge distribution:              12.500000
       Electronic configuration (s p d ...):                           1   0   0

  3. Atomic kind: F                                     Number of atoms:       1

     Orbital Basis Set                                                   cc-pVDZ

       Number of orbital shell sets:                                           3
       Number of orbital shells:                                               6
       Number of primitive Cartesian functions:                               14
       Number of Cartesian basis functions:                                   15
       Number of spherical basis functions:                                   14
       Norm type:                                                              2

       Normalised Cartesian orbitals:

                        Set   Shell   Orbital            Exponent    Coefficient

                          1       1    1px              22.670000       3.164375
                                                         4.977000       2.497712
                                                         1.347000       1.051861
                                                         0.347100       0.173975
                          1       1    1py              22.670000       3.164375
                                                         4.977000       2.497712
                                                         1.347000       1.051861
                                                         0.347100       0.173975
                          1       1    1pz              22.670000       3.164375
                                                         4.977000       2.497712
                                                         1.347000       1.051861
                                                         0.347100       0.173975

                          1       2    2px              22.670000       0.000000
                                                         4.977000       0.000000
                                                         1.347000       0.000000
                                                         0.347100       0.379759
                          1       2    2py              22.670000       0.000000
                                                         4.977000       0.000000
                                                         1.347000       0.000000
                                                         0.347100       0.379759
                          1       2    2pz              22.670000       0.000000
                                                         4.977000       0.000000
                                                         1.347000       0.000000
                                                         0.347100       0.379759

                          2       1    1s            14710.000000       0.686365
                                                      2207.000000       1.274353
                                                       502.800000       2.139126
                                                       142.600000       3.130553
                                                        46.470000       3.638230
                                                        16.700000       2.641476
                                                         6.356000       0.755357
                                                         1.316000       0.013427
                                                         0.389700      -0.000820

                          2       2    2s            14710.000000      -0.157074
                                                      2207.000000      -0.300172
                                                       502.800000      -0.491514
                                                       142.600000      -0.784991
                                                        46.470000      -0.934756
                                                        16.700000      -1.005483
                                                         6.356000      -0.320466
                                                         1.316000       0.492853
                                                         0.389700       0.199941

                          2       3    3s            14710.000000       0.000000
                                                      2207.000000       0.000000
                                                       502.800000       0.000000
                                                       142.600000       0.000000
                                                        46.470000       0.000000
                                                        16.700000       0.000000
                                                         6.356000       0.000000
                                                         1.316000       0.000000
                                                         0.389700       0.351526

                          3       1    1dx2              1.640000       3.911886
                          3       1    1dxy              1.640000       6.775585
                          3       1    1dxz              1.640000       6.775585
                          3       1    1dy2              1.640000       3.911886
                          3       1    1dyz              1.640000       6.775585
                          3       1    1dz2              1.640000       3.911886

     RI Auxiliary Basis Set                                        cc-pVDZ-RIFIT

       Number of orbital shell sets:                                          18
       Number of orbital shells:                                              18
       Number of primitive Cartesian functions:                               18
       Number of Cartesian basis functions:                                   66
       Number of spherical basis functions:                                   56
       Norm type:                                                              2

       Normalised Cartesian orbitals:

                        Set   Shell   Orbital            Exponent    Coefficient

                          1       1    1s                0.536595       0.446833

                          2       1    1dx2              0.743695       0.980281
                          2       1    1dxy              0.743695       1.697896
                          2       1    1dxz              0.743695       1.697896
                          2       1    1dy2              0.743695       0.980281
                          2       1    1dyz              0.743695       1.697896
                          2       1    1dz2              0.743695       0.980281

                          3       1    1px               0.786730       1.056142
                          3       1    1py               0.786730       1.056142
                          3       1    1pz               0.786730       1.056142

                          4       1    1s                1.084240       0.757276

                          5       1    1s                1.736570       1.078150

                          6       1    1px               1.912180       3.205170
                          6       1    1py               1.912180       3.205170
                          6       1    1pz               1.912180       3.205170

                          7       1    1fx3              2.445790      11.012795
                          7       1    1fx2y             2.445790      24.625359
                          7       1    1fx2z             2.445790      24.625359
                          7       1    1fxy2             2.445790      24.625359
                          7       1    1fxyz             2.445790      42.652373
                          7       1    1fxz2             2.445790      24.625359
                          7       1    1fy3              2.445790      11.012795
                          7       1    1fy2z             2.445790      24.625359
                          7       1    1fyz2             2.445790      24.625359
                          7       1    1fz3              2.445790      11.012795

                          8       1    1dx2              2.446780       7.878628
                          8       1    1dxy              2.446780      13.646183
                          8       1    1dxz              2.446780      13.646183
                          8       1    1dy2              2.446780       7.878628
                          8       1    1dyz              2.446780      13.646183
                          8       1    1dz2              2.446780       7.878628

                          9       1    1s                3.706770       1.903956

                         10       1    1px               4.257910       8.718378
                         10       1    1py               4.257910       8.718378
                         10       1    1pz               4.257910       8.718378

                         11       1    1fx3              5.754130      75.493351
                         11       1    1fx2y             5.754130     168.808266
                         11       1    1fx2z             5.754130     168.808266
                         11       1    1fxy2             5.754130     168.808266
                         11       1    1fxyz             5.754130     292.384493
                         11       1    1fxz2             5.754130     168.808266
                         11       1    1fy3              5.754130      75.493351
                         11       1    1fy2z             5.754130     168.808266
                         11       1    1fyz2             5.754130     168.808266
                         11       1    1fz3              5.754130      75.493351

                         12       1    1dx2              5.966640      37.491832
                         12       1    1dxy              5.966640      64.937759
                         12       1    1dxz              5.966640      64.937759
                         12       1    1dy2              5.966640      37.491832
                         12       1    1dyz              5.966640      64.937759
                         12       1    1dz2              5.966640      37.491832

                         13       1    1s               11.017900       4.310069

                         14       1    1px              12.631400      33.943330
                         14       1    1py              12.631400      33.943330
                         14       1    1pz              12.631400      33.943330

                         15       1    1dx2             19.925300     309.291494
                         15       1    1dxy             19.925300     535.708583
                         15       1    1dxz             19.925300     535.708583
                         15       1    1dy2             19.925300     309.291494
                         15       1    1dyz             19.925300     535.708583
                         15       1    1dz2             19.925300     309.291494

                         16       1    1s               31.839300       9.552845

                         17       1    1px              42.927100     156.622635
                         17       1    1py              42.927100     156.622635
                         17       1    1pz              42.927100     156.622635

                         18       1    1s              130.337000      27.492288

       Atomic covalent radius [Angstrom]:                                  0.720

       Atomic van der Waals radius [Angstrom]:                             1.470

     The atoms of this atomic kind are PAW atoms (GAPW):
       Hard Gaussian function radius:                                      1.512
       Rho0 radius:                                                        1.512
       Maximum GTO radius used for PAW projector construction:            24.566

     GAPW Soft Basis Set                                            cc-pVDZ_soft

       Number of orbital shell sets:                                           3
       Number of orbital shells:                                               6
       Number of primitive Cartesian functions:                                5
       Number of Cartesian basis functions:                                   15
       Number of spherical basis functions:                                   14
       Norm type:                                                              2

       Normalised Cartesian orbitals:

                        Set   Shell   Orbital            Exponent    Coefficient

                          1       1    1px               1.347000       1.051861
                                                         0.347100       0.173975
                          1       1    1py               1.347000       1.051861
                                                         0.347100       0.173975
                          1       1    1pz               1.347000       1.051861
                                                         0.347100       0.173975

                          1       2    2px               1.347000       0.000000
                                                         0.347100       0.379759
                          1       2    2py               1.347000       0.000000
                                                         0.347100       0.379759
                          1       2    2pz               1.347000       0.000000
                                                         0.347100       0.379759

                          2       1    1s                1.316000       0.013427
                                                         0.389700      -0.000820

                          2       2    2s                1.316000       0.492853
                                                         0.389700       0.199941

                          2       3    3s                1.316000       0.000000
                                                         0.389700       0.351526

                          3       1    1dx2              1.640000       3.911886
                          3       1    1dxy              1.640000       6.775585
                          3       1    1dxz              1.640000       6.775585
                          3       1    1dy2              1.640000       3.911886
                          3       1    1dyz              1.640000       6.775585
                          3       1    1dz2              1.640000       3.911886

     AE Potential information for                                            ALL

       Description:                                       All-electron potential
                                          Krack, Parrinello, PCCP 2, 2105 (2000)

       Gaussian exponent of the core charge distribution:              10.470541
       Electronic configuration (s p d ...):                           4   5   0


 MOLECULE KIND INFORMATION


 All atoms are their own molecule, skipping detailed information


 TOTAL NUMBERS AND MAXIMUM NUMBERS

  Total number of            - Atomic kinds:                                   3
                             - Atoms:                                          4
                             - Shell sets:                                    11
                             - Shells:                                        21
                             - Primitive Cartesian functions:                 47
                             - Cartesian basis functions:                     50
                             - Spherical basis functions:                     47

  Maximum angular momentum of the orbital basis functions:                     2


 MODULE QUICKSTEP: ATOMIC COORDINATES IN ANGSTROM

   Atom Kind Element         X             Y             Z       Z(eff)     Mass
      1    1 C     6     14.291270     15.000000     15.000000   6.0000  12.0107
      2    1 C     6     15.490767     15.000000     15.000000   6.0000  12.0107
      3    2 H     1     13.230125     15.000000     15.000000   1.0000   1.0079
      4    3 F     9     16.769875     15.000000     15.000000   9.0000  18.9984



 SCF PARAMETERS         Density guess:                                   RESTART
                        --------------------------------------------------------
                        max_scf:                                             500
                        max_scf_history:                                       0
                        max_diis:                                              4
                        --------------------------------------------------------
                        eps_scf:                                        1.00E-06
                        eps_scf_history:                                0.00E+00
                        eps_diis:                                       1.00E-01
                        eps_eigval:                                     1.00E-05
                        --------------------------------------------------------
                        level_shift [a.u.]:                             0.000000
                        --------------------------------------------------------
                        Outer loop SCF in use 
                        No variables optimised in outer loop
                        eps_scf                                         1.00E-06
                        max_scf                                               20
                        No outer loop optimization
                        step_size                                       5.00E-01

 PW_GRID| Information for grid number                                          1
 PW_GRID| Grid distributed over                                    96 processors
 PW_GRID| Real space group dimensions                                    96    1
 PW_GRID| the grid is blocked:                                                NO
 PW_GRID| Cutoff [a.u.]                                                    250.0
 PW_GRID| spherical cutoff:                                                   NO
 PW_GRID|   Bounds   1           -202     202                Points:         405
 PW_GRID|   Bounds   2           -202     202                Points:         405
 PW_GRID|   Bounds   3           -202     202                Points:         405
 PW_GRID| Volume element (a.u.^3)  0.2743E-02     Volume (a.u.^3)    182205.0337
 PW_GRID| Grid span                                                    FULLSPACE
 PW_GRID|   Distribution                         Average         Max         Min
 PW_GRID|   G-Vectors                           691980.5      692145      691740
 PW_GRID|   G-Rays                                1708.6        1709        1708
 PW_GRID|   Real Space Points                   691980.5      820125      656100

 PW_GRID| Information for grid number                                          2
 PW_GRID| Number of the reference grid                                         1
 PW_GRID| Grid distributed over                                    96 processors
 PW_GRID| Real space group dimensions                                    96    1
 PW_GRID| the grid is blocked:                                                NO
 PW_GRID| Cutoff [a.u.]                                                     83.3
 PW_GRID| spherical cutoff:                                                   NO
 PW_GRID|   Bounds   1           -120     119                Points:         240
 PW_GRID|   Bounds   2           -120     119                Points:         240
 PW_GRID|   Bounds   3           -120     119                Points:         240
 PW_GRID| Volume element (a.u.^3)  0.1318E-01     Volume (a.u.^3)    182205.0337
 PW_GRID| Grid span                                                    FULLSPACE
 PW_GRID|   Distribution                         Average         Max         Min
 PW_GRID|   G-Vectors                           144000.0      144480      143760
 PW_GRID|   G-Rays                                 600.0         602         599
 PW_GRID|   Real Space Points                   144000.0      172800      115200

 PW_GRID| Information for grid number                                          3
 PW_GRID| Number of the reference grid                                         1
 PW_GRID| Grid distributed over                                    96 processors
 PW_GRID| Real space group dimensions                                    96    1
 PW_GRID| the grid is blocked:                                                NO
 PW_GRID| Cutoff [a.u.]                                                     27.8
 PW_GRID| spherical cutoff:                                                   NO
 PW_GRID|   Bounds   1            -67      67                Points:         135
 PW_GRID|   Bounds   2            -67      67                Points:         135
 PW_GRID|   Bounds   3            -67      67                Points:         135
 PW_GRID| Volume element (a.u.^3)  0.7406E-01     Volume (a.u.^3)    182205.0337
 PW_GRID| Grid span                                                    FULLSPACE
 PW_GRID|   Distribution                         Average         Max         Min
 PW_GRID|   G-Vectors                            25628.9       25785       25515
 PW_GRID|   G-Rays                                 189.8         191         189
 PW_GRID|   Real Space Points                    25628.9       36450       18225

 PW_GRID| Information for grid number                                          4
 PW_GRID| Number of the reference grid                                         1
 PW_GRID| Grid distributed over                                    96 processors
 PW_GRID| Real space group dimensions                                     8   12
 PW_GRID| the grid is blocked:                                                NO
 PW_GRID| Cutoff [a.u.]                                                      9.3
 PW_GRID| spherical cutoff:                                                   NO
 PW_GRID|   Bounds   1            -40      39                Points:          80
 PW_GRID|   Bounds   2            -40      39                Points:          80
 PW_GRID|   Bounds   3            -40      39                Points:          80
 PW_GRID| Volume element (a.u.^3)  0.3559         Volume (a.u.^3)    182205.0337
 PW_GRID| Grid span                                                    FULLSPACE
 PW_GRID|   Distribution                         Average         Max         Min
 PW_GRID|   G-Vectors                             5333.3        5520        5200
 PW_GRID|   G-Rays                                  66.7          69          65
 PW_GRID|   Real Space Points                     5333.3        5600        4800

 POISSON| Solver                                                         WAVELET
 POISSON| Wavelet| Scaling function                                           40
 POISSON| Periodicity                                                       NONE

 RS_GRID| Information for grid number                                          1
 RS_GRID|   Bounds   1           -202     202                Points:         405
 RS_GRID|   Bounds   2           -202     202                Points:         405
 RS_GRID|   Bounds   3           -202     202                Points:         405
 RS_GRID| Real space distribution over                                  4 groups
 RS_GRID| Real space distribution along direction                              1
 RS_GRID| Border size                                                         33
 RS_GRID| Real space distribution over                                  4 groups
 RS_GRID| Real space distribution along direction                              2
 RS_GRID| Border size                                                         33
 RS_GRID| Real space distribution over                                  6 groups
 RS_GRID| Real space distribution along direction                              3
 RS_GRID| Border size                                                         33
 RS_GRID|   Distribution                         Average         Max         Min
 RS_GRID|   Planes                                 167.2         168         167
 RS_GRID|   Distribution                         Average         Max         Min
 RS_GRID|   Planes                                 167.2         168         167
 RS_GRID|   Distribution                         Average         Max         Min
 RS_GRID|   Planes                                 133.5         134         133

 RS_GRID| Information for grid number                                          2
 RS_GRID|   Bounds   1           -120     119                Points:         240
 RS_GRID|   Bounds   2           -120     119                Points:         240
 RS_GRID|   Bounds   3           -120     119                Points:         240
 RS_GRID| Real space distribution over                                  4 groups
 RS_GRID| Real space distribution along direction                              1
 RS_GRID| Border size                                                         33
 RS_GRID| Real space distribution over                                  4 groups
 RS_GRID| Real space distribution along direction                              2
 RS_GRID| Border size                                                         33
 RS_GRID| Real space distribution over                                  6 groups
 RS_GRID| Real space distribution along direction                              3
 RS_GRID| Border size                                                         33
 RS_GRID|   Distribution                         Average         Max         Min
 RS_GRID|   Planes                                 126.0         126         126
 RS_GRID|   Distribution                         Average         Max         Min
 RS_GRID|   Planes                                 126.0         126         126
 RS_GRID|   Distribution                         Average         Max         Min
 RS_GRID|   Planes                                 106.0         106         106

 RS_GRID| Information for grid number                                          3
 RS_GRID|   Bounds   1            -67      67                Points:         135
 RS_GRID|   Bounds   2            -67      67                Points:         135
 RS_GRID|   Bounds   3            -67      67                Points:         135
 RS_GRID| Real space fully replicated
 RS_GRID| Group size                                                           1

 RS_GRID| Information for grid number                                          4
 RS_GRID|   Bounds   1            -40      39                Points:          80
 RS_GRID|   Bounds   2            -40      39                Points:          80
 RS_GRID|   Bounds   3            -40      39                Points:          80
 RS_GRID| Real space fully replicated
 RS_GRID| Group size                                                           1

  HFX_INFO| Replica ID:                                                        1
  HFX_INFO| FRACTION:                                               0.2500000000
  HFX_INFO| Interaction Potential:                                       COULOMB
  HFX_INFO| EPS_SCHWARZ:                                                 1.0E-10
  HFX_INFO| EPS_SCHWARZ_FORCES                                           1.0E-08
  HFX_INFO| EPS_STORAGE_SCALING:                                         1.0E+00
  HFX_INFO| NBINS:                                                            64
  HFX_INFO| BLOCK_SIZE:                                                        1
  HFX_INFO| Number of periodic shells considered:                           NONE
  HFX_INFO| Number of periodic cells considered:                            NONE


 OVERLAP MATRIX CONDITION NUMBER
 1-Norm Condition Number (Estimate)
   CN : |A|*|A^-1|:  6.833E+000 *  1.341E+003   = 9.164E+003  Log(1-CN):  3.9621
 1-Norm and 2-Norm Condition Numbers using Diagonalization
   CN : |A|*|A^-1|:  6.833E+000 *  1.341E+003   = 9.164E+003  Log(1-CN):  3.9621
   CN : max/min ev:  4.536E+000 /  1.185E-003   = 3.828E+003  Log(2-CN):  3.5830

 Number of electrons:                                                         22
 Number of occupied orbitals:                                                 11
 Number of molecular orbitals:                                                11

 Number of orbital functions:                                                 47
 Number of independent orbital functions:                                     47

 Extrapolation method: initial_guess

 *** WARNING in qs_initial_guess.F:306 :: User requested to restart the    ***
 *** wavefunction from the file named: MoS2-RESTART.wfn. This file does    ***
 *** not exist. Please check the existence of the file or change properly  ***
 *** the value of the keyword WFN_RESTART_FILE_NAME. Calculation continues ***
 *** using ATOMIC GUESS.                                                   ***


 Atomic guess: The first density matrix is obtained in terms of atomic orbitals
               and electronic configurations assigned to each atomic kind

 Guess for atomic kind: C

 Electronic structure
    Total number of core electrons                                          0.00
    Total number of valence electrons                                       6.00
    Total number of electrons                                               6.00
    Multiplicity                                                   not specified
    S      2.00  2.00
    P      2.00


 *******************************************************************************
                  Iteration          Convergence                     Energy [au]
 *******************************************************************************
                          1        0.119218                     -37.400998717351
                          2        0.790512E-01                 -37.406821273133
                          3        0.734628E-04                 -37.411395536056
                          4        0.691595E-05                 -37.411395536800
                          5        0.886149E-08                 -37.411395536837

 Energy components [Hartree]           Total Energy ::          -37.411395536837
                                        Band Energy ::          -21.198904416633
                                     Kinetic Energy ::           37.516349324744
                                   Potential Energy ::          -74.927744861581
                                      Virial (-V/T) ::            1.997202452003
                                        Core Energy ::          -50.374040099829
                                          XC Energy ::           -4.756770713918
                                     Coulomb Energy ::           17.719415276911

 Orbital energies  State     L     Occupation   Energy[a.u.]          Energy[eV]

                       1     0          2.000      -9.925807         -270.094932
                       2     0          2.000      -0.489058          -13.307940

                       1     1          2.000      -0.184588           -5.022890


 Total Electron Density at R=0:                                       121.943173

 Guess for atomic kind: H

 Electronic structure
    Total number of core electrons                                          0.00
    Total number of valence electrons                                       1.00
    Total number of electrons                                               1.00
    Multiplicity                                                   not specified
    S      1.00


 *******************************************************************************
                  Iteration          Convergence                     Energy [au]
 *******************************************************************************
                          1        0.645465E-02                  -0.443631123483
                          2        0.932618E-03                  -0.443685732765
                          3        0.519913E-06                  -0.443686896372

 Energy components [Hartree]           Total Energy ::           -0.443686896372
                                        Band Energy ::           -0.225436097088
                                     Kinetic Energy ::            0.430574518289
                                   Potential Energy ::           -0.874261414661
                                      Virial (-V/T) ::            2.030453214314
                                        Core Energy ::           -0.496536053916
                                          XC Energy ::           -0.237394005036
                                     Coulomb Energy ::            0.290243162580

 Orbital energies  State     L     Occupation   Energy[a.u.]          Energy[eV]

                       1     0          1.000      -0.225436           -6.134428


 Total Electron Density at R=0:                                         0.220668

 Guess for atomic kind: F

 Electronic structure
    Total number of core electrons                                          0.00
    Total number of valence electrons                                       9.00
    Total number of electrons                                               9.00
    Multiplicity                                                   not specified
    S      2.00  2.00
    P      5.00


 *******************************************************************************
                  Iteration          Convergence                     Energy [au]
 *******************************************************************************
                          1         1.13360                     -98.941105258856
                          2         1.10653                     -98.937707110137
                          3        0.982254E-02                 -99.043728011728
                          4        0.429851E-03                 -99.043736025931
                          5        0.411276E-06                 -99.043736041227

 Energy components [Hartree]           Total Energy ::          -99.043736041227
                                        Band Energy ::          -52.323756851607
                                     Kinetic Energy ::           99.058339882364
                                   Potential Energy ::         -198.102075923592
                                      Virial (-V/T) ::            1.999852573330
                                        Core Energy ::         -139.177798346621
                                          XC Energy ::           -9.667597773742
                                     Coulomb Energy ::           49.801660079135

 Orbital energies  State     L     Occupation   Energy[a.u.]          Energy[eV]

                       1     0          2.000     -24.163860         -657.532068
                       2     0          2.000      -1.054054          -28.682264

                       1     1          5.000      -0.377586          -10.274634


 Total Electron Density at R=0:                                       428.676899
 Re-scaling the density matrix to get the right number of electrons
                  # Electrons              Trace(P)               Scaling factor
                           22                22.000                        1.000


 SCF WAVEFUNCTION OPTIMIZATION

  ----------------------------------- OT ---------------------------------------
  Minimizer      : CG                  : conjugate gradient
  Preconditioner : FULL_SINGLE_INVERSE : inversion of 
                                         H + eS - 2*(Sc)(c^T*H*c+const)(Sc)^T
  Precond_solver : DEFAULT
  Line search    : 3PNT                : 3 energies
  stepsize       :    0.08000000                  energy_gap     :    0.08000000
  eps_taylor     :   0.10000E-15                  max_taylor     :             4
  ----------------------------------- OT ---------------------------------------

  Step     Update method      Time    Convergence         Total energy    Change
  ------------------------------------------------------------------------------

  HFX_MEM_INFO| Est. max. program size before HFX [MiB]:                     655
  HFX_MEM_INFO| Number of cart. primitive ERI's calculated:             11242568
  HFX_MEM_INFO| Number of sph. ERI's calculated:                         1117876
  HFX_MEM_INFO| Number of sph. ERI's stored in-core:                     1117876
  HFX_MEM_INFO| Number of sph. ERI's stored on disk:                           0
  HFX_MEM_INFO| Number of sph. ERI's calculated on the fly:                    0
  HFX_MEM_INFO| Total memory consumption ERI's RAM [MiB]:                      6
  HFX_MEM_INFO| Whereof max-vals [MiB]:                                        3
  HFX_MEM_INFO| Total compression factor ERI's RAM:                         1.61
  HFX_MEM_INFO| Total memory consumption ERI's disk [MiB]:                     0
  HFX_MEM_INFO| Total compression factor ERI's disk:                        0.00
  HFX_MEM_INFO| Size of density/Fock matrix [MiB]:                             0
  HFX_MEM_INFO| Size of buffers [MiB]:                                         0
  HFX_MEM_INFO| Est. max. program size after HFX  [MiB]:                    1181

     1 OT CG       0.64E-01    3.7     0.87554052      -172.3425530390 -1.72E+02
     2 OT LS       0.32E-01    1.0                     -145.9462777918
     3 OT LS       0.14E-01    1.1                     -170.9674483526
     4 OT CG       0.11E-01    1.4     0.17999055      -175.2352645703 -2.89E+00
     5 OT LS       0.16E-01    1.0                     -175.4004437854
     6 OT LS       0.41E-01    1.1                     -175.4517693532
     7 OT CG       0.33E-01    1.5     0.08971220      -175.5829792346 -3.48E-01
     8 OT LS       0.46E-01    1.0                     -175.6994521455
     9 OT LS       0.11E+00    1.0                     -175.7346947574
    10 OT CG       0.89E-01    1.4     0.12431897      -175.8122671564 -2.29E-01
    11 OT LS       0.44E-01    1.1                     -175.5712704533
    12 OT LS       0.33E-01    1.1                     -175.9200744715
    13 OT CG       0.26E-01    1.5     0.11355176      -175.9378895241 -1.26E-01
    14 OT LS       0.37E-01    1.0                     -176.0823319448
    15 OT LS       0.81E-01    1.0                     -176.1245790834
    16 OT CG       0.65E-01    1.4     0.06806576      -176.1993666796 -2.61E-01
    17 OT LS       0.91E-01    1.1                     -176.2149084681
    18 OT LS       0.36E-01    1.1                     -176.1480571841
    19 OT CG       0.29E-01    1.4     0.04012081      -176.2405593769 -4.12E-02
    20 OT LS       0.41E-01    1.1                     -176.2563595536
    21 OT LS       0.42E-01    1.1                     -176.2580095963
    22 OT CG       0.34E-01    1.4     0.04477491      -176.2580280380 -1.75E-02
    23 OT LS       0.47E-01    1.0                     -176.2855223724
    24 OT LS       0.80E-01    1.0                     -176.2924390070
    25 OT CG       0.64E-01    1.5     0.03526353      -176.2997744564 -4.17E-02
    26 OT LS       0.90E-01    1.1                     -176.3180192980
    27 OT LS       0.57E-01    1.0                     -176.3120447957
    28 OT CG       0.45E-01    1.5     0.03009807      -176.3183325213 -1.86E-02
    29 OT LS       0.64E-01    1.1                     -176.3250965684
    30 OT LS       0.33E-01    1.0                     -176.3197066789
    31 OT CG       0.27E-01    1.5     0.02346986      -176.3261285571 -7.80E-03
    32 OT LS       0.37E-01    1.1                     -176.3320249494
    33 OT LS       0.60E-01    1.1                     -176.3334313815
    34 OT CG       0.48E-01    1.4     0.01619272      -176.3346125329 -8.48E-03
    35 OT LS       0.67E-01    1.0                     -176.3395902821
    36 OT LS       0.10E+00    1.1                     -176.3407484244
    37 OT CG       0.83E-01    1.5     0.02324904      -176.3416435481 -7.03E-03
    38 OT LS       0.42E-01    1.1                     -176.3411755429
    39 OT LS       0.41E-01    1.0                     -176.3473524720
    40 OT CG       0.33E-01    1.4     0.02056117      -176.3473545195 -5.71E-03
    41 OT LS       0.46E-01    1.1                     -176.3521066792
    42 OT LS       0.49E-01    1.0                     -176.3526811063
    43 OT CG       0.39E-01    1.5     0.01202851      -176.3527063956 -5.35E-03
    44 OT LS       0.55E-01    1.1                     -176.3547557345
    45 OT LS       0.65E-01    1.0                     -176.3550829999
    46 OT CG       0.52E-01    1.5     0.00958970      -176.3551447548 -2.44E-03
    47 OT LS       0.73E-01    1.0                     -176.3559901018
    48 OT LS       0.40E-01    1.0                     -176.3554137875
    49 OT CG       0.32E-01    1.4     0.00919491      -176.3560851020 -9.40E-04
    50 OT LS       0.44E-01    1.0                     -176.3570587846
    51 OT LS       0.53E-01    1.0                     -176.3572186367
    52 OT CG       0.43E-01    1.4     0.00760977      -176.3572524411 -1.17E-03
    53 OT LS       0.60E-01    1.1                     -176.3582498356
    54 OT LS       0.97E-01    1.1                     -176.3584912226
    55 OT CG       0.78E-01    1.4     0.00700840      -176.3587057774 -1.45E-03
    56 OT LS       0.11E+00    1.0                     -176.3587828164
    57 OT LS       0.40E-01    1.0                     -176.3577499954
    58 OT CG       0.32E-01    1.4     0.00621415      -176.3592195483 -5.14E-04
    59 OT LS       0.45E-01    1.0                     -176.3595928180
    60 OT LS       0.38E-01    1.0                     -176.3595896659
    61 OT CG       0.31E-01    1.4     0.00412492      -176.3596021861 -3.83E-04
    62 OT LS       0.43E-01    1.0                     -176.3598173875
    63 OT LS       0.76E-01    1.1                     -176.3598729300
    64 OT CG       0.61E-01    1.5     0.00327455      -176.3599357191 -3.34E-04
    65 OT LS       0.85E-01    1.1                     -176.3601401944
    66 OT LS       0.77E-01    1.1                     -176.3601481920
    67 OT CG       0.62E-01    1.4     0.00506690      -176.3601502215 -2.15E-04
    68 OT LS       0.87E-01    1.0                     -176.3604292562
    69 OT LS       0.47E-01    1.1                     -176.3602366482
    70 OT CG       0.37E-01    1.4     0.00382231      -176.3604613510 -3.11E-04
    71 OT LS       0.52E-01    1.1                     -176.3606701831
    72 OT LS       0.71E-01    1.1                     -176.3607120641
    73 OT CG       0.57E-01    1.4     0.00245662      -176.3607309599 -2.70E-04
    74 OT LS       0.80E-01    1.0                     -176.3607924389
    75 OT LS       0.44E-01    1.0                     -176.3607516679
    76 OT CG       0.35E-01    1.4     0.00213476      -176.3607989745 -6.80E-05
    77 OT LS       0.49E-01    1.1                     -176.3608402439
    78 OT LS       0.35E-01    1.1                     -176.3608338543
[...]
 tddfpt_davidson_solver               1  6.0    0.001    0.002  206.940  206.940
 tddfpt_compute_Aop_evects            7  7.0    0.000    0.000  205.606  205.606
 qs_ks_update_qs_env                212  5.0    0.001    0.001  197.893  197.900
 rebuild_ks_matrix                  211  6.0    0.001    0.001  197.879  197.886
 qs_ks_build_kohn_sham_matrix       211  7.0    0.029    0.033  197.879  197.886
 fhxc_kernel                          7  8.0    0.007    0.008  190.690  190.690
 fft_wrap_pw1pw2                   5775 10.6    0.114    0.143  172.150  176.384
 fft_wrap_pw1pw2_250               4083 11.9    7.127    8.384  165.704  169.589
 pw_poisson_solve                   351  8.8    4.611    5.585  166.188  166.485
 fft3d_ps                          5775 12.6   62.955   79.134  141.638  146.697
 ps_wavelet_solve                   351  9.8   78.796   89.918  101.133  102.507
 qs_rho_update_rho_low              353  6.6    0.004    0.004   82.570   82.572
 calculate_rho_elec                 353  7.6    1.717    2.037   82.408   82.411
 tddfpt_apply_coulomb               140  9.0    0.003    0.004   79.701   79.929
 mp_alltoall_d54                    351 10.8   12.936   77.796   12.936   77.796
 xc_pw_derive                      1689 11.0    0.019    0.024   75.203   75.656
 mp_alltoall_z22v                  5775 14.6   66.077   71.762   66.077   71.762
 density_rs2pw                      353  8.6    0.022    0.025   55.766   56.952
 tddfpt_apply_xc_analytic           140  9.0    0.199    0.277   46.791   47.461
 qs_vxc_create                      211  8.0    0.002    0.003   45.901   45.902
 yz_to_x                           2607 13.6    4.348    5.193   38.190   42.056
 x_to_yz                           2604 13.8    7.620    8.918   39.812   41.341
 xc_pw_divergence                   211 10.7    0.009    0.011   38.616   39.115
 transfer_rs2pw                    1765  9.8    0.053    0.073   31.763   32.410
 xc_rho_set_and_dset_create         212 10.0    0.519    0.648   29.707   32.023
 prepare_gapw_den                   352  8.4    0.005    0.006   29.087   29.499
 put_rho0_on_grid                   352  9.4    1.734    2.076   28.135   28.547
 integrate_v_rspace                 211  9.0    0.005    0.007   28.167   28.254
 mp_alltoall_d11v                 14586 11.9   19.394   27.987   19.394   27.987
 transfer_pw2rs                    1196 10.6    0.018    0.021   27.413   27.937
 xc_calc_2nd_deriv_analytical       700 10.1    1.675    1.771   27.849   27.924
 potential_pw2rs                    211 10.0    0.073    0.080   27.035   27.127
 grid_collocate_task_list           353  8.6   23.549   24.989   23.549   24.989
 integrate_four_center              491  9.6   10.322   21.644   24.011   24.230
 xc_vxc_pw_create                    71  9.0    0.465    0.569   24.198   24.199
 xc_exc_calc                        140  9.0    0.679    0.806   21.701   21.701
 mp_sync                           2722 11.5   11.442   21.609   11.442   21.609
 mp_waitany                       54990 12.1   19.702   21.461   19.702   21.461
 transfer_rs2pw_250                 706 11.0    8.248    8.638   18.514   19.224
 transfer_pw2rs_250                 563 11.2    6.399    6.824   17.907   18.403
 integrate_vhg0_rspace              351  8.8    0.080    0.112   15.319   15.362
 mp_alltoall_d45                    352 10.8    8.620   14.887    8.620   14.887
 tddfpt_apply_hfx                     7  8.0    0.003    0.003   14.362   14.362
 tddft_hfx_matrix                   280  9.0    0.007    0.008   12.743   12.815
 hfx_ks_matrix                      211  8.0    0.008    0.009   11.285   11.484
 pw_scatter_p                      2815 12.8    9.930   10.222    9.930   10.222
 sum_up_and_integrate                71  8.0    0.001    0.001    9.599    9.626
 pw_gather_p                       2960 12.5    8.162    9.100    8.162    9.100
 pw_derive                         2742 11.5    8.107    8.657    8.107    8.657
 mp_sum_d                          6900 10.0    6.764    8.496    6.764    8.496
 cp2k_distribution_to_z_slices      351  9.8    3.376    3.682    7.899    8.417
 transfer_rs2pw_30                  353 10.6    3.343    3.476    7.755    7.872
 fft_wrap_pw1pw2_90                 564 11.1    0.190    0.239    4.892    6.352
 transfer_pw2rs_30                  211 12.0    3.589    4.024    5.877    6.006
 pw_copy                           4290 10.8    5.418    5.739    5.418    5.739
 dbcsr_multiply_generic            3712  9.9    0.149    0.158    5.519    5.583
 mp_sendrecv_dv                   67070 11.6    5.380    5.558    5.380    5.558
 pw_poisson_set                     352  9.8    0.012    0.015    5.422    5.499
 mp_waitall_1                    497254 13.5    3.840    5.272    3.840    5.272
 qs_scf_new_mos                     211  5.0    0.001    0.001    5.215    5.223
 qs_scf_loop_do_ot                  211  6.0    0.001    0.001    5.214    5.222
 rs_grid_zero                      1478 11.3    4.974    5.192    4.974    5.192
 ot_scf_mini                        211  7.0    0.003    0.003    4.884    4.892
 transfer_rs2pw_90                  353 10.6    1.162    1.296    3.860    4.043
 init_scf_loop                        1  4.0    0.000    0.000    3.678    3.678
 pw_integral_ab_c1d_c1d_gs          351  9.8    2.567    2.593    3.114    3.613
 cp_dbcsr_sm_fm_multiply            889  8.5    0.017    0.018    3.448    3.533
 pw_copy_to_array                  2960 12.5    2.972    3.362    2.972    3.362
 multiply_cannon                   3712 10.9    0.336    0.344    2.910    3.044
 pw_axpy                           2958 10.1    2.777    3.003    2.777    3.003
 xc_functional_eval                1616 10.9    0.002    0.006    0.854    2.971
 pbe_lda_eval                      1616 11.9    0.852    2.966    0.852    2.966
 transfer_pw2rs_90                  211 12.0    0.727    0.809    2.613    2.756
 mp_isend_dv                     208073 13.5    1.664    2.506    1.664    2.506
 pw_copy_from_array                2815 12.8    1.972    2.491    1.972    2.491
 qs_ot_get_p                        212  8.0    0.001    0.001    2.357    2.361
 dbcsr_complete_redistribute       3230 10.7    0.114    0.156    2.262    2.353
 multiply_cannon_loop              3712 11.9    0.556    0.577    2.152    2.291
 pw_zero                           2952 10.5    2.083    2.243    2.083    2.243
 calculate_xc_2nd_deriv_atom        140  9.0    0.035    0.726    0.087    2.061
 mp_irecv_dm3                     10998 12.1    1.003    1.941    1.003    1.941
 mp_isendrecv_dv                 133380 12.0    1.064    1.867    1.064    1.867
 mp_sum_dm                         4258  9.0    1.380    1.790    1.380    1.790
 qs_ot_p2m_diag                     211  9.0    0.004    0.007    1.771    1.782
 mp_isend_dm3                     10998 12.1    0.964    1.750    0.964    1.750
 create_qs_kind_set                   1  2.0    0.000    0.000    1.714    1.715
 read_qs_kind                         3  3.0    0.954    0.970    1.714    1.715
 make_m2s                          7424 10.9    0.121    0.129    1.610    1.681
 copy_dbcsr_to_fm                  1139  9.7    0.014    0.016    1.650    1.660
 transfer_rs2pw_10                  353 10.6    0.613    0.646    1.581    1.627
 ot_mini                            211  8.0    0.001    0.001    1.580    1.593
 gaVxcgb_GC                         422  9.7    0.044    1.571    0.044    1.571
 copy_fm_to_dbcsr                  2089  9.8    0.009    0.009    1.371    1.466
 qs_ot_get_derivative                71  9.0    0.001    0.001    1.450    1.451
 calculate_vxc_atom                 211  8.0    0.102    0.583    1.346    1.347
 mp_max_i                           819  5.6    1.007    1.344    1.007    1.344
 cp_dbcsr_sm_fm_multiply_core       889  9.5    0.002    0.002    1.215    1.249
 make_images                       7424 11.9    0.291    0.299    1.172    1.205
 fft_wrap_pw1pw2_30                 564 11.1    0.036    0.042    1.040    1.179
 rs_gather_matrices                 211 10.0    0.002    0.006    1.059    1.156
 cp_dbcsr_syevd                     211 10.0    0.011    0.012    1.114    1.117
 qs_ot_get_derivative_diag           70 10.0    0.002    0.002    1.113    1.115
 Vh_1c_gg_integrals                 351  8.8    0.028    0.147    0.916    1.105
 transfer_pw2rs_10                  211 12.0    0.385    0.415    0.998    1.065
 grid_integrate_task_list           211 10.0    0.067    1.052    0.067    1.052
 scale_and_distribute               702 10.8    0.883    0.994    0.883    0.994
 powell_optimize                 366616 11.0    0.904    0.973    0.904    0.973
 cp_fm_syevd                        260 10.4    0.001    0.002    0.948    0.952
 mp_alltoall_i11v                 11040 11.8    0.933    0.935    0.933    0.935
 calculate_rho_atom                1056  9.4    0.605    0.892    0.605    0.892
 pw_poisson_rebuild                 351  9.8    0.000    0.000    0.783    0.795
 ps_wavelet_create                    1 10.0    0.000    0.000    0.782    0.795
 RS_z_slice_distribution              1 11.0    0.679    0.737    0.782    0.795
 tddfpt_orthonormalize_psi1_psi       8  6.9    0.014    0.015    0.787    0.788
 parser_read_line                202470  4.0    0.071    0.083    0.760    0.772
 calc_screening_functions             1 10.0    0.260    0.265    0.713    0.745
 cp_fm_redistribute_end             260 11.4    0.427    0.735    0.433    0.742
 parser_read_line_low               222  5.0    0.072    0.323    0.689    0.704
 calc_pair_dist_radii                 1 10.0    0.203    0.207    0.654    0.687
 qs_ot_get_orbitals                 211  8.0    0.001    0.001    0.640    0.645
 dbcsr_desymmetrize_deep           1140 10.7    0.021    0.022    0.626    0.637
 broadcast_input_information        222  6.0    0.168    0.189    0.617    0.634
 cp_dbcsr_plus_fm_fm_t              141  9.0    0.002    0.002    0.613    0.619
 cp_fm_syevd_base                   260 11.4    0.305    0.612    0.305    0.612
 prepare_dr1dr                      700 11.1    0.500    0.593    0.500    0.593
 tddfpt_apply_energy_diff             7  8.0    0.001    0.001    0.555    0.555
 mp_sum_dv                        19985 10.7    0.525    0.551    0.525    0.551
 multiply_cannon_metrocomm4       81664 12.9    0.241    0.257    0.466    0.514
 mp_sum_l                         16641 10.7    0.472    0.513    0.472    0.513
 tddfpt_compute_residual_vects        6  7.0    0.001    0.001    0.482    0.482
 multiply_cannon_metrocomm2       77952 12.9    0.232    0.245    0.425    0.466
 tddfpt_print_nto_analysis            1  6.0    0.002    0.003    0.465    0.465
 multiply_cannon_metrocomm3       89088 12.9    0.141    0.146    0.347    0.461
 make_images_sizes                 7424 12.9    0.008    0.008    0.420    0.446
 mp_alltoall_i44                   7424 13.9    0.412    0.439    0.412    0.439
 integrate_four_center_getP         491 10.6    0.071    0.077    0.413    0.428
 fft_wrap_pw1pw2_10                 564 11.1    0.009    0.009    0.400    0.424
 mp_alltoall_i22                   4440 11.8    0.327    0.420    0.327    0.420
 integrate_four_center_dist_KS      491 10.6    0.072    0.077    0.402    0.406
 parallel_gemm_fm                  1193  8.4    0.001    0.002    0.382    0.391
 parallel_gemm_fm_gemm             1193  9.4    0.001    0.002    0.380    0.390
 cp_fm_gemm                        1193 10.4    0.379    0.388    0.379    0.388
 hybrid_alltoall_any               8564 13.6    0.065    0.072    0.349    0.371
 mp_rank_compare                   5775 13.6    0.347    0.366    0.347    0.366
 calculate_dm_sparse                212  7.0    0.001    0.001    0.332    0.335
 tddfpt_construct_ground_state_       1  6.0    0.000    0.000    0.319    0.320
 init_scf_run                         1  3.0    0.000    0.000    0.317    0.317
 scf_env_initial_rho_setup            1  4.0    0.000    0.000    0.316    0.316
 dbcsr_make_images_dense           5072 11.9    0.077    0.081    0.228    0.316
 multiply_cannon_metrocomm1       89088 12.9    0.098    0.102    0.230    0.308
 dbcsr_create_new                 76132 12.4    0.216    0.223    0.290    0.306
 integrate_four_center_main         491 10.6    0.064    0.104    0.094    0.302
 mp_bcast_i_src                     888  7.0    0.243    0.284    0.243    0.284
 dbcsr_finalize                    9398 11.4    0.045    0.059    0.219    0.280
 pw_scale                           564  9.5    0.235    0.277    0.235    0.277
 integrate_four_center_bin        43380 11.6    0.030    0.255    0.030    0.255
 arnoldi_extremal                   212  9.0    0.004    0.004    0.249    0.254
 xc_2nd_deriv_of_r                  560 10.0    0.001    0.044    0.005    0.252
 mp_alltoall_z11v                   564 14.1    0.227    0.252    0.227    0.252
 arnoldi_normal_ev                  213 10.0    0.004    0.004    0.247    0.252
 qs_init_subsys                       1  2.0    0.004    0.004    0.250    0.250
 qs_env_setup                         1  3.0    0.000    0.000    0.242    0.242
 qs_env_rebuild_pw_env                2  3.5    0.000    0.000    0.240    0.241
 pw_env_rebuild                       1  5.0    0.001    0.001    0.240    0.240
 mp_bcast_am_src                    222  7.0    0.192    0.211    0.202    0.235
 pw_grid_setup                        4  6.0    0.000    0.000    0.227    0.228
 pw_grid_setup_internal               4  7.0    0.006    0.008    0.227    0.227
 dbcsr_make_dense_low             14722 12.8    0.073    0.075    0.111    0.226
 mp_allgather_i34                  3712 11.9    0.203    0.226    0.203    0.226
 make_images_data                  7424 12.9    0.071    0.095    0.156    0.226
 vxc_of_r_new                       844  9.0    0.000    0.017    0.005    0.223
 cp_fm_redistribute_start           260 11.4    0.166    0.172    0.208    0.211
 create_kernel_env                    1  6.0    0.000    0.000    0.193    0.208
 xc_prep_2nd_deriv                    1  7.0    0.000    0.000    0.193    0.208
 cp_fm_trace_a1b1t1_aa            10080  8.0    0.046    0.050    0.202    0.205
 cp_fm_geeig                         20  7.0    0.001    0.001    0.194    0.194
 mp_cart_sub                       2281 11.7    0.192    0.193    0.192    0.193
 dbcsr_special_finalize           18560 12.9    0.048    0.050    0.152    0.189
 build_subspace                     213 11.0    0.009    0.010    0.183    0.185
 multiply_cannon_multrec          89088 12.9    0.112    0.165    0.128    0.181
 mp_irecv_dv                     207156 13.5    0.146    0.174    0.146    0.174
 pw_grid_sort                         4  8.0    0.107    0.109    0.156    0.161
 mp_cart_create                    2197 10.6    0.148    0.157    0.151    0.160
 dbcsr_merge_all                   8147 12.3    0.098    0.121    0.124    0.159
 calculate_rho_atom_coeff           353  7.6    0.021    0.052    0.158    0.159
 rs_grid_create                     357  9.7    0.002    0.002    0.031    0.153
 offload_create_buffer              359 10.7    0.030    0.151    0.030    0.151
 xz_to_yz                           353 12.6    0.013    0.015    0.138    0.146
 mp_isend_iv                     175354 13.9    0.133    0.145    0.133    0.145
 dbcsr_matrix_vector_mult          2050 12.0    0.019    0.019    0.097    0.143
 dbcsr_iterator_start             62601 12.5    0.063    0.112    0.078    0.136
 yz_to_xz                           211 14.0    0.012    0.013    0.114    0.135
 dbcsr_destroy                    74135 11.5    0.091    0.096    0.122    0.133
 ot_new_cg_direction                 71  9.0    0.001    0.001    0.121    0.121
 make_dense_data                  14722 13.8    0.006    0.049    0.007    0.116
 qs_energies_init_hamiltonians        1  3.0    0.000    0.000    0.111    0.111
 apply_preconditioner_dbcsr          72 10.0    0.000    0.000    0.108    0.111
 apply_single                        72 11.0    0.000    0.000    0.107    0.111
 dbcsr_data_new                  208964 13.0    0.088    0.108    0.088    0.108
 dbcsr_data_release              348527 13.2    0.089    0.107    0.089    0.107
 build_core_hamiltonian_matrix        1  4.0    0.000    0.000    0.104    0.104
 overlap_condnum                      1  5.0    0.000    0.000    0.102    0.103
 rs_scatter_matrices                353  8.6    0.003    0.006    0.092    0.094
 integrate_four_center_load         491 10.6    0.001    0.002    0.074    0.090
 hfx_load_balance                     1 11.0    0.000    0.000    0.073    0.089
 dbcsr_iterator_stop              62601 12.5    0.047    0.075    0.058    0.089
 setup_buffer_matrices             7424 11.9    0.027    0.029    0.084    0.088
 dbcsr_work_create                27917 12.5    0.051    0.056    0.074    0.086
 mp_irecv_iv                     175353 13.9    0.076    0.084    0.076    0.084
 hfx_load_balance_range               1 12.0    0.000    0.000    0.066    0.083
 update_ks_atom                     351  8.4    0.017    0.035    0.064    0.078
 arnoldi_conjugate_gradient           5  6.0    0.002    0.003    0.077    0.077
 scf_post_calculation_gpw             1  3.0    0.000    0.000    0.076    0.076
 write_available_results              1  4.0    0.000    0.000    0.075    0.075
 write_mo_free_results                1  5.0    0.007    0.010    0.075    0.075
 tddfpt_compute_ritz_vects            7  7.0    0.005    0.005    0.075    0.075
 dbcsr_make_dense                  2042 11.1    0.008    0.009    0.043    0.074
 dbcsr_new_transposed              1620 10.8    0.009    0.010    0.069    0.072
 dbcsr_merge_single_wm             8350 13.7    0.040    0.049    0.047    0.072
 dbcsr_work_destroy_all           27917 13.4    0.047    0.052    0.062    0.071
 dbcsr_add_d                       1064  8.9    0.002    0.002    0.009    0.069
 copy_fm_to_dbcsr_bc               2089 10.8    0.022    0.024    0.065    0.069
 dbcsr_col_vec_to_rep_row          2477 12.3    0.017    0.019    0.039    0.069
 dbcsr_add_anytype                 1064  9.9    0.002    0.009    0.008    0.068
 mp_sum_b                          5073 10.9    0.065    0.067    0.065    0.067
 tddfpt_orthogonalize_psi1_psi0       8  6.9    0.000    0.000    0.059    0.065
 dbcsr_sym_matrix_vector_mult       427  7.9    0.007    0.007    0.049    0.063
 mp_bcast_dm                       3022  9.6    0.052    0.056    0.052    0.056
 dbcsr_make_undense                2042 11.1    0.013    0.025    0.026    0.056
 dbcsr_mm_multrec_init             3712 11.9    0.007    0.008    0.050    0.055
 sort_shells                          4  9.0    0.049    0.055    0.049    0.055
 dbcsr_copy                        6861 10.0    0.022    0.023    0.050    0.054
 Gram_Schmidt_ortho                1905 11.9    0.002    0.004    0.043    0.053
 quick_finalize                   11420 14.0    0.024    0.031    0.041    0.052
 xc_pw_smooth                        71 10.0    0.000    0.000    0.038    0.052
 mp_cart_rank                    134892 10.3    0.040    0.049    0.040    0.049
 dbcsr_mm_csr_init                 3712 12.9    0.034    0.037    0.043    0.047
 -------------------------------------------------------------------------------

 The number of warnings for this run is : 2
 
 -------------------------------------------------------------------------------
  **** **** ******  **  PROGRAM ENDED AT                 2025-04-28 07:49:11.783
 ***** ** ***  *** **   PROGRAM RAN ON                              i04r10c05s08
 **    ****   ******    PROGRAM RAN BY                                   di38fab
 ***** **    ** ** **   PROGRAM PROCESS ID                               2057163
  **** **  *******  **  PROGRAM STOPPED IN /hppfs/scratch/04/di38fab/07_MOL_non_
                                           aug/05_MOL_non_aug/05_MOL/W4-11+ALK/h
                                           ccf/cc-pVDZ/TDDFT
