 DBCSR| CPU Multiplication driver                                           BLAS (U)
 DBCSR| Multrec recursion limit                                              512 (U)
 DBCSR| Multiplication stack size                                           1000 (D)
 DBCSR| Maximum elements for images                                    UNLIMITED (U)
 DBCSR| Multiplicative factor virtual images                                   1 (U)
 DBCSR| Use multiplication densification                                       T (D)
 DBCSR| Multiplication size stacks                                             3 (U)
 DBCSR| Use memory pool for CPU allocation                                     F (U)
 DBCSR| Number of 3D layers                                               SINGLE (U)
 DBCSR| Use MPI memory allocation                                              F (U)
 DBCSR| Use RMA algorithm                                                      F (U)
 DBCSR| Use Communication thread                                               T (U)
 DBCSR| Communication thread load                                             75 (D)
 DBCSR| MPI: My process id                                                     0
 DBCSR| MPI: Number of processes                                              96
 DBCSR| OMP: Current number of threads                                         4
 DBCSR| OMP: Max number of threads                                             4
 DBCSR| Split modifier for TAS multiplication algorithm                  1.0E+00 (U)


  **** **** ******  **  PROGRAM STARTED AT               2025-04-28 05:25:41.827
 ***** ** ***  *** **   PROGRAM STARTED ON                          i03r03c02s06
 **    ****   ******    PROGRAM STARTED BY                               di38fab
 ***** **    ** ** **   PROGRAM PROCESS ID                               2061592
  **** **  *******  **  PROGRAM STARTED IN /hppfs/scratch/04/di38fab/07_MOL_non_
                                           aug/05_MOL_non_aug/05_MOL/W4-11+ALK/c
                                           -n2h2/cc-pVDZ/TDDFT

 CP2K| version string:                 CP2K version 2025.1 (Development Version)
 CP2K| source code revision number:                             unknown revision
 CP2K| cp2kflags: omp libint fftw3 libxc parallel scalapack max_contr=4         
 CP2K| is freely available from                            https://www.cp2k.org/
 CP2K| Program compiled at                         Thu Apr 10 16:20:23 CEST 2025
 CP2K| Program compiled on                                               login01
 CP2K| Program compiled for                                        Supermuc-foss
 CP2K| Data directory path                  /hppfs/work/pn36zo/di38fab/cp2k/data
 CP2K| Input file name                                                    GW.inp

 GLOBAL| Force Environment number                                              1
 GLOBAL| Basis set file name            /hppfs/scratch/04/di38fab/04_TMD/BASIS_A
 GLOBAL| Potential file name            /hppfs/work/pn36zo/di38fab/cp2k/data/ALL
 GLOBAL| MM Potential file name                                     MM_POTENTIAL
 GLOBAL| Coordinate file name                                      __STD_INPUT__
 GLOBAL| Method name                                                        CP2K
 GLOBAL| Project name                                                       MoS2
 GLOBAL| Run type                                                         ENERGY
 GLOBAL| FFT library                                                       FFTW3
 GLOBAL| Diagonalization library                                       ScaLAPACK
 GLOBAL| DGEMM library                                                      BLAS
 GLOBAL| Orthonormality check for eigenvectors                          DISABLED
 GLOBAL| Matrix multiplication library                                 ScaLAPACK
 GLOBAL| All-to-all communication in single precision                          F
 GLOBAL| FFTs using library dependent lengths                                  F
 GLOBAL| Grid backend                                                       AUTO
 GLOBAL| Global print level                                               MEDIUM
 GLOBAL| MPI I/O enabled                                                       T
 GLOBAL| Total number of message passing processes                            96
 GLOBAL| Number of threads for this process                                    4
 GLOBAL| This output is from process                                           0
 GLOBAL| OpenMP stack size per thread (OMP_STACKSIZE)                    default
 GLOBAL| CPU model name             Intel(R) Xeon(R) Platinum 8174 CPU @ 3.10GHz

 MEMORY| system memory details [Kb]
 MEMORY|                        rank 0           min           max       average
 MEMORY| MemTotal             98436660      98429616      98436664      98435772
 MEMORY| MemFree              84895380      84842344      85045744      84942766
 MEMORY| Buffers                     0             0             0             0
 MEMORY| Cached                2382828       2381628       2399320       2386981
 MEMORY| Slab                  1081700       1071088       1092192       1083601
 MEMORY| SReclaimable           245348        242288        249196        245936
 MEMORY| MemLikelyFree        87523556      87490836      87673664      87575684


 *** Fundamental physical constants (SI units) ***

 *** Literature: B. J. Mohr and B. N. Taylor,
 ***             CODATA recommended values of the fundamental physical
 ***             constants: 2006, Web Version 5.1
 ***             http://physics.nist.gov/constants

 Speed of light in vacuum [m/s]                             2.99792458000000E+08
 Magnetic constant or permeability of vacuum [N/A**2]       1.25663706143592E-06
 Electric constant or permittivity of vacuum [F/m]          8.85418781762039E-12
 Planck constant (h) [J*s]                                  6.62606896000000E-34
 Planck constant (h-bar) [J*s]                              1.05457162825177E-34
 Elementary charge [C]                                      1.60217648700000E-19
 Electron mass [kg]                                         9.10938215000000E-31
 Electron g factor [ ]                                     -2.00231930436220E+00
 Proton mass [kg]                                           1.67262163700000E-27
 Fine-structure constant                                    7.29735253760000E-03
 Rydberg constant [1/m]                                     1.09737315685270E+07
 Avogadro constant [1/mol]                                  6.02214179000000E+23
 Boltzmann constant [J/K]                                   1.38065040000000E-23
 Atomic mass unit [kg]                                      1.66053878200000E-27
 Bohr radius [m]                                            5.29177208590000E-11

 *** Conversion factors ***

 [u] -> [a.u.]                                              1.82288848426455E+03
 [Angstrom] -> [Bohr] = [a.u.]                              1.88972613288564E+00
 [a.u.] = [Bohr] -> [Angstrom]                              5.29177208590000E-01
 [a.u.] -> [s]                                              2.41888432650478E-17
 [a.u.] -> [fs]                                             2.41888432650478E-02
 [a.u.] -> [J]                                              4.35974393937059E-18
 [a.u.] -> [N]                                              8.23872205491840E-08
 [a.u.] -> [K]                                              3.15774647902944E+05
 [a.u.] -> [kJ/mol]                                         2.62549961709828E+03
 [a.u.] -> [kcal/mol]                                       6.27509468713739E+02
 [a.u.] -> [Pa]                                             2.94210107994716E+13
 [a.u.] -> [bar]                                            2.94210107994716E+08
 [a.u.] -> [atm]                                            2.90362800883016E+08
 [a.u.] -> [eV]                                             2.72113838565563E+01
 [a.u.] -> [Hz]                                             6.57968392072181E+15
 [a.u.] -> [1/cm] (wave numbers)                            2.19474631370540E+05
 [a.u./Bohr**2] -> [1/cm]                                   5.14048714338585E+03
 

 CELL_TOP| Volume [angstrom^3]:                                     27000.000000
 CELL_TOP| Vector a [angstrom    30.000     0.000     0.000   |a| =    30.000000
 CELL_TOP| Vector b [angstrom     0.000    30.000     0.000   |b| =    30.000000
 CELL_TOP| Vector c [angstrom     0.000     0.000    30.000   |c| =    30.000000
 CELL_TOP| Angle (b,c), alpha [degree]:                                90.000000
 CELL_TOP| Angle (a,c), beta  [degree]:                                90.000000
 CELL_TOP| Angle (a,b), gamma [degree]:                                90.000000
 CELL_TOP| Numerically orthorhombic:                                         YES
 CELL_TOP| Periodicity                                                      NONE

 GENERATE|  Preliminary Number of Bonds generated:                             0
 GENERATE|  Achieved consistency in connectivity generation.

 CELL| Volume [angstrom^3]:                                         27000.000000
 CELL| Vector a [angstrom]:      30.000     0.000     0.000   |a| =    30.000000
 CELL| Vector b [angstrom]:       0.000    30.000     0.000   |b| =    30.000000
 CELL| Vector c [angstrom]:       0.000     0.000    30.000   |c| =    30.000000
 CELL| Angle (b,c), alpha [degree]:                                    90.000000
 CELL| Angle (a,c), beta  [degree]:                                    90.000000
 CELL| Angle (a,b), gamma [degree]:                                    90.000000
 CELL| Numerically orthorhombic:                                             YES
 CELL| Periodicity                                                          NONE

 CELL_REF| Volume [angstrom^3]:                                     27000.000000
 CELL_REF| Vector a [angstrom    30.000     0.000     0.000   |a| =    30.000000
 CELL_REF| Vector b [angstrom     0.000    30.000     0.000   |b| =    30.000000
 CELL_REF| Vector c [angstrom     0.000     0.000    30.000   |c| =    30.000000
 CELL_REF| Angle (b,c), alpha [degree]:                                90.000000
 CELL_REF| Angle (a,c), beta  [degree]:                                90.000000
 CELL_REF| Angle (a,b), gamma [degree]:                                90.000000
 CELL_REF| Numerically orthorhombic:                                         YES
 CELL_REF| Periodicity                                                      NONE

 *******************************************************************************
 *******************************************************************************
 **                                                                           **
 **     #####                         ##              ##                      **
 **    ##   ##            ##          ##              ##                      **
 **   ##     ##                       ##            ######                    **
 **   ##     ##  ##   ##  ##   #####  ##  ##   ####   ##    #####    #####    **
 **   ##     ##  ##   ##  ##  ##      ## ##   ##      ##   ##   ##  ##   ##   **
 **   ##  ## ##  ##   ##  ##  ##      ####     ###    ##   ######   ######    **
 **    ##  ###   ##   ##  ##  ##      ## ##      ##   ##   ##       ##        **
 **     #######   #####   ##   #####  ##  ##  ####    ##    #####   ##        **
 **           ##                                                    ##        **
 **                                                                           **
 **                                                ... make the atoms dance   **
 **                                                                           **
 **            Copyright (C) by CP2K developers group (2000-2025)             **
 **                      J. Chem. Phys. 152, 194103 (2020)                    **
 **                                                                           **
 *******************************************************************************

 DFT| Spin restricted Kohn-Sham (RKS) calculation                            RKS
 DFT| Multiplicity                                                             1
 DFT| Number of spin states                                                    1
 DFT| Charge                                                                   0
 DFT| Self-interaction correction (SIC)                                       NO
 DFT| Cutoffs: density                                              1.000000E-10
 DFT|          gradient                                             1.000000E-10
 DFT|          tau                                                  1.000000E-10
 DFT|          cutoff_smoothing_range                               0.000000E+00
 DFT| XC density smoothing                                                  NONE
 DFT| XC derivatives                                                          PW

 FUNCTIONAL| PBE:
 FUNCTIONAL| J.P.Perdew, K.Burke, M.Ernzerhof, Phys. Rev. Letter, vol. 77, n 18,
 FUNCTIONAL|  pp. 3865-3868, (1996)sx=0.750sc=1.000{spin unpolarized}           


 QS| Method:                                                                GAPW
 QS| Density plane wave grid type                        NON-SPHERICAL FULLSPACE
 QS| Number of grid levels:                                                    4
 QS| Density cutoff [a.u.]:                                                250.0
 QS| Multi grid cutoff [a.u.]: 1) grid level                               250.0
 QS|                           2) grid level                                83.3
 QS|                           3) grid level                                27.8
 QS|                           4) grid level                                 9.3
 QS| Grid level progression factor:                                          3.0
 QS| Relative density cutoff [a.u.]:                                        50.0
 QS| Interaction thresholds: eps_pgf_orb:                                1.0E-12
 QS|                         eps_filter_matrix:                          0.0E+00
 QS|                         eps_core_charge:                            1.0E-14
 QS|                         eps_rho_gspace:                             1.0E-12
 QS|                         eps_rho_rspace:                             1.0E-12
 QS|                         eps_gvg_rspace:                             1.0E-06
 QS|                         eps_ppl:                                    1.0E-02
 QS|                         eps_ppnl:                                   1.0E-08
 QS| GAPW|      One center basis from orbital basis primitives
 QS| GAPW|                   eps_fit:                                    1.0E-04
 QS| GAPW|                   eps_iso:                                    1.0E-12
 QS| GAPW|                   eps_svd:                                    1.0E-08
 QS| GAPW|                   eps_cpc:                                    1.0E-12
 QS| GAPW|   atom-r-grid: quadrature:                                     GC_LOG
 QS| GAPW|      atom-s-grid:  max l :                                          4
 QS| GAPW|      max_l_rho0 :                                                   2


 ATOMIC KIND INFORMATION

  1. Atomic kind: H                                     Number of atoms:       2

     Orbital Basis Set                                                   cc-pVDZ

       Number of orbital shell sets:                                           2
       Number of orbital shells:                                               3
       Number of primitive Cartesian functions:                                5
       Number of Cartesian basis functions:                                    5
       Number of spherical basis functions:                                    5
       Norm type:                                                              2

       Normalised Cartesian orbitals:

                        Set   Shell   Orbital            Exponent    Coefficient

                          1       1    1s               13.010000       0.096107
                                                         1.962000       0.163020
                                                         0.444600       0.185545
                                                         0.122000       0.073744

                          1       2    2s               13.010000       0.000000
                                                         1.962000       0.000000
                                                         0.444600       0.000000
                                                         0.122000       0.147123

                          2       1    1px               0.727000       0.956881
                          2       1    1py               0.727000       0.956881
                          2       1    1pz               0.727000       0.956881

     RI Auxiliary Basis Set                                        cc-pVDZ-RIFIT

       Number of orbital shell sets:                                           6
       Number of orbital shells:                                               6
       Number of primitive Cartesian functions:                                6
       Number of Cartesian basis functions:                                   15
       Number of spherical basis functions:                                   14
       Norm type:                                                              2

       Normalised Cartesian orbitals:

                        Set   Shell   Orbital            Exponent    Coefficient

                          1       1    1s                0.291662       0.282859

                          2       1    1px               0.986401       1.401222
                          2       1    1py               0.986401       1.401222
                          2       1    1pz               0.986401       1.401222

                          3       1    1s                1.142965       0.787834

                          4       1    1dx2              1.172083       2.173136
                          4       1    1dxy              1.172083       3.763982
                          4       1    1dxz              1.172083       3.763982
                          4       1    1dy2              1.172083       2.173136
                          4       1    1dyz              1.172083       3.763982
                          4       1    1dz2              1.172083       2.173136

                          5       1    1px               1.914964       3.211004
                          5       1    1py               1.914964       3.211004
                          5       1    1pz               1.914964       3.211004

                          6       1    1s                5.115890       2.424381

       Atomic covalent radius [Angstrom]:                                  0.320

       Atomic van der Waals radius [Angstrom]:                             1.090

     The atoms of this atomic kind are PAW atoms (GAPW):
       Hard Gaussian function radius:                                      1.200
       Rho0 radius:                                                        1.200
       Maximum GTO radius used for PAW projector construction:            24.566

     GAPW Soft Basis Set                                            cc-pVDZ_soft

       Number of orbital shell sets:                                           2
       Number of orbital shells:                                               3
       Number of primitive Cartesian functions:                                4
       Number of Cartesian basis functions:                                    5
       Number of spherical basis functions:                                    5
       Norm type:                                                              2

       Normalised Cartesian orbitals:

                        Set   Shell   Orbital            Exponent    Coefficient

                          1       1    1s                1.962000       0.163020
                                                         0.444600       0.185545
                                                         0.122000       0.073744

                          1       2    2s                1.962000       0.000000
                                                         0.444600       0.000000
                                                         0.122000       0.147123

                          2       1    1px               0.727000       0.956881
                          2       1    1py               0.727000       0.956881
                          2       1    1pz               0.727000       0.956881

     AE Potential information for                                            ALL

       Description:                                       All-electron potential
                                          Krack, Parrinello, PCCP 2, 2105 (2000)

       Gaussian exponent of the core charge distribution:              12.500000
       Electronic configuration (s p d ...):                           1   0   0

  2. Atomic kind: N                                     Number of atoms:       2

     Orbital Basis Set                                                   cc-pVDZ

       Number of orbital shell sets:                                           3
       Number of orbital shells:                                               6
       Number of primitive Cartesian functions:                               14
       Number of Cartesian basis functions:                                   15
       Number of spherical basis functions:                                   14
       Norm type:                                                              2

       Normalised Cartesian orbitals:

                        Set   Shell   Orbital            Exponent    Coefficient

                          1       1    1px              13.550000       1.479258
                                                         2.917000       1.180072
                                                         0.797300       0.548036
                                                         0.218500       0.098423
                          1       1    1py              13.550000       1.479258
                                                         2.917000       1.180072
                                                         0.797300       0.548036
                                                         0.218500       0.098423
                          1       1    1pz              13.550000       1.479258
                                                         2.917000       1.180072
                                                         0.797300       0.548036
                                                         0.218500       0.098423

                          1       2    2px              13.550000       0.000000
                                                         2.917000       0.000000
                                                         0.797300       0.000000
                                                         0.218500       0.212939
                          1       2    2py              13.550000       0.000000
                                                         2.917000       0.000000
                                                         0.797300       0.000000
                                                         0.218500       0.212939
                          1       2    2pz              13.550000       0.000000
                                                         2.917000       0.000000
                                                         0.797300       0.000000
                                                         0.218500       0.212939

                          2       1    1s             9046.000000       0.462754
                                                      1357.000000       0.858723
                                                       309.300000       1.440591
                                                        87.730000       2.108533
                                                        28.560000       2.454153
                                                        10.210000       1.825915
                                                         3.838000       0.543758
                                                         0.746600       0.008838
                                                         0.224800      -0.000666

                          2       2    2s             9046.000000      -0.101145
                                                      1357.000000      -0.192492
                                                       309.300000      -0.314968
                                                        87.730000      -0.501437
                                                        28.560000      -0.593976
                                                        10.210000      -0.643503
                                                         3.838000      -0.238093
                                                         0.746600       0.314268
                                                         0.224800       0.134678

                          2       3    3s             9046.000000       0.000000
                                                      1357.000000       0.000000
                                                       309.300000       0.000000
                                                        87.730000       0.000000
                                                        28.560000       0.000000
                                                        10.210000       0.000000
                                                         3.838000       0.000000
                                                         0.746600       0.000000
                                                         0.224800       0.232679

                          3       1    1dx2              0.817000       1.155575
                          3       1    1dxy              0.817000       2.001514
                          3       1    1dxz              0.817000       2.001514
                          3       1    1dy2              0.817000       1.155575
                          3       1    1dyz              0.817000       2.001514
                          3       1    1dz2              0.817000       1.155575

     RI Auxiliary Basis Set                                        cc-pVDZ-RIFIT

       Number of orbital shell sets:                                          18
       Number of orbital shells:                                              18
       Number of primitive Cartesian functions:                               18
       Number of Cartesian basis functions:                                   66
       Number of spherical basis functions:                                   56
       Norm type:                                                              2

       Normalised Cartesian orbitals:

                        Set   Shell   Orbital            Exponent    Coefficient

                          1       1    1s                0.327261       0.308376

                          2       1    1px               0.461104       0.541613
                          2       1    1py               0.461104       0.541613
                          2       1    1pz               0.461104       0.541613

                          3       1    1dx2              0.477850       0.452033
                          3       1    1dxy              0.477850       0.782943
                          3       1    1dxz              0.477850       0.782943
                          3       1    1dy2              0.477850       0.452033
                          3       1    1dyz              0.477850       0.782943
                          3       1    1dz2              0.477850       0.452033

                          4       1    1s                0.723539       0.559122

                          5       1    1px               1.094610       1.595932
                          5       1    1py               1.094610       1.595932
                          5       1    1pz               1.094610       1.595932

                          6       1    1s                1.123240       0.777615

                          7       1    1dx2              1.285370       2.553929
                          7       1    1dxy              1.285370       4.423534
                          7       1    1dxz              1.285370       4.423534
                          7       1    1dy2              1.285370       2.553929
                          7       1    1dyz              1.285370       4.423534
                          7       1    1dz2              1.285370       2.553929

                          8       1    1fx3              1.334730       2.818965
                          8       1    1fx2y             1.334730       6.303397
                          8       1    1fx2z             1.334730       6.303397
                          8       1    1fxy2             1.334730       6.303397
                          8       1    1fxyz             1.334730      10.917804
                          8       1    1fxz2             1.334730       6.303397
                          8       1    1fy3              1.334730       2.818965
                          8       1    1fy2z             1.334730       6.303397
                          8       1    1fyz2             1.334730       6.303397
                          8       1    1fz3              1.334730       2.818965

                          9       1    1s                2.344260       1.350251

                         10       1    1px               2.533640       4.556393
                         10       1    1py               2.533640       4.556393
                         10       1    1pz               2.533640       4.556393

                         11       1    1fx3              3.401180      23.127095
                         11       1    1fx2y             3.401180      51.713757
                         11       1    1fx2z             3.401180      51.713757
                         11       1    1fxy2             3.401180      51.713757
                         11       1    1fxyz             3.401180      89.570854
                         11       1    1fxz2             3.401180      51.713757
                         11       1    1fy3              3.401180      23.127095
                         11       1    1fy2z             3.401180      51.713757
                         11       1    1fyz2             3.401180      51.713757
                         11       1    1fz3              3.401180      23.127095

                         12       1    1dx2              3.428160      14.215638
                         12       1    1dxy              3.428160      24.622207
                         12       1    1dxz              3.428160      24.622207
                         12       1    1dy2              3.428160      14.215638
                         12       1    1dyz              3.428160      24.622207
                         12       1    1dz2              3.428160      14.215638

                         13       1    1s                7.624360       3.270112

                         14       1    1px               8.552990      20.849111
                         14       1    1py               8.552990      20.849111
                         14       1    1pz               8.552990      20.849111

                         15       1    1dx2             12.327800     133.493224
                         15       1    1dxy             12.327800     231.217046
                         15       1    1dxz             12.327800     231.217046
                         15       1    1dy2             12.327800     133.493224
                         15       1    1dyz             12.327800     231.217046
                         15       1    1dz2             12.327800     133.493224

                         16       1    1s               20.467900       6.858278

                         17       1    1px              29.237300      96.908455
                         17       1    1py              29.237300      96.908455
                         17       1    1pz              29.237300      96.908455

                         18       1    1s               87.686400      20.422517

       Atomic covalent radius [Angstrom]:                                  0.750

       Atomic van der Waals radius [Angstrom]:                             1.550

     The atoms of this atomic kind are PAW atoms (GAPW):
       Hard Gaussian function radius:                                      1.512
       Rho0 radius:                                                        1.512
       Maximum GTO radius used for PAW projector construction:            24.566

     GAPW Soft Basis Set                                            cc-pVDZ_soft

       Number of orbital shell sets:                                           3
       Number of orbital shells:                                               6
       Number of primitive Cartesian functions:                                7
       Number of Cartesian basis functions:                                   15
       Number of spherical basis functions:                                   14
       Norm type:                                                              2

       Normalised Cartesian orbitals:

                        Set   Shell   Orbital            Exponent    Coefficient

                          1       1    1px               2.917000       1.180072
                                                         0.797300       0.548036
                                                         0.218500       0.098423
                          1       1    1py               2.917000       1.180072
                                                         0.797300       0.548036
                                                         0.218500       0.098423
                          1       1    1pz               2.917000       1.180072
                                                         0.797300       0.548036
                                                         0.218500       0.098423

                          1       2    2px               2.917000       0.000000
                                                         0.797300       0.000000
                                                         0.218500       0.212939
                          1       2    2py               2.917000       0.000000
                                                         0.797300       0.000000
                                                         0.218500       0.212939
                          1       2    2pz               2.917000       0.000000
                                                         0.797300       0.000000
                                                         0.218500       0.212939

                          2       1    1s                3.838000       0.543758
                                                         0.746600       0.008838
                                                         0.224800      -0.000666

                          2       2    2s                3.838000      -0.238093
                                                         0.746600       0.314268
                                                         0.224800       0.134678

                          2       3    3s                3.838000       0.000000
                                                         0.746600       0.000000
                                                         0.224800       0.232679

                          3       1    1dx2              0.817000       1.155575
                          3       1    1dxy              0.817000       2.001514
                          3       1    1dxz              0.817000       2.001514
                          3       1    1dy2              0.817000       1.155575
                          3       1    1dyz              0.817000       2.001514
                          3       1    1dz2              0.817000       1.155575

     AE Potential information for                                            ALL

       Description:                                       All-electron potential
                                          Krack, Parrinello, PCCP 2, 2105 (2000)

       Gaussian exponent of the core charge distribution:               5.979100
       Electronic configuration (s p d ...):                           4   3   0


 MOLECULE KIND INFORMATION


 All atoms are their own molecule, skipping detailed information


 TOTAL NUMBERS AND MAXIMUM NUMBERS

  Total number of            - Atomic kinds:                                   2
                             - Atoms:                                          4
                             - Shell sets:                                    10
                             - Shells:                                        18
                             - Primitive Cartesian functions:                 38
                             - Cartesian basis functions:                     40
                             - Spherical basis functions:                     38

  Maximum angular momentum of the orbital basis functions:                     2


 MODULE QUICKSTEP: ATOMIC COORDINATES IN ANGSTROM

   Atom Kind Element         X             Y             Z       Z(eff)     Mass
      1    1 H     1     13.991860     15.480180     15.000000   1.0000   1.0079
      2    2 N     7     14.375972     14.519820     15.000000   7.0000  14.0067
      3    2 N     7     15.624028     14.519820     15.000000   7.0000  14.0067
      4    1 H     1     16.008140     15.480180     15.000000   1.0000   1.0079



 SCF PARAMETERS         Density guess:                                   RESTART
                        --------------------------------------------------------
                        max_scf:                                             500
                        max_scf_history:                                       0
                        max_diis:                                              4
                        --------------------------------------------------------
                        eps_scf:                                        1.00E-06
                        eps_scf_history:                                0.00E+00
                        eps_diis:                                       1.00E-01
                        eps_eigval:                                     1.00E-05
                        --------------------------------------------------------
                        level_shift [a.u.]:                             0.000000
                        --------------------------------------------------------
                        Outer loop SCF in use 
                        No variables optimised in outer loop
                        eps_scf                                         1.00E-06
                        max_scf                                               20
                        No outer loop optimization
                        step_size                                       5.00E-01

 PW_GRID| Information for grid number                                          1
 PW_GRID| Grid distributed over                                    96 processors
 PW_GRID| Real space group dimensions                                    96    1
 PW_GRID| the grid is blocked:                                                NO
 PW_GRID| Cutoff [a.u.]                                                    250.0
 PW_GRID| spherical cutoff:                                                   NO
 PW_GRID|   Bounds   1           -202     202                Points:         405
 PW_GRID|   Bounds   2           -202     202                Points:         405
 PW_GRID|   Bounds   3           -202     202                Points:         405
 PW_GRID| Volume element (a.u.^3)  0.2743E-02     Volume (a.u.^3)    182205.0337
 PW_GRID| Grid span                                                    FULLSPACE
 PW_GRID|   Distribution                         Average         Max         Min
 PW_GRID|   G-Vectors                           691980.5      692145      691740
 PW_GRID|   G-Rays                                1708.6        1709        1708
 PW_GRID|   Real Space Points                   691980.5      820125      656100

 PW_GRID| Information for grid number                                          2
 PW_GRID| Number of the reference grid                                         1
 PW_GRID| Grid distributed over                                    96 processors
 PW_GRID| Real space group dimensions                                    96    1
 PW_GRID| the grid is blocked:                                                NO
 PW_GRID| Cutoff [a.u.]                                                     83.3
 PW_GRID| spherical cutoff:                                                   NO
 PW_GRID|   Bounds   1           -120     119                Points:         240
 PW_GRID|   Bounds   2           -120     119                Points:         240
 PW_GRID|   Bounds   3           -120     119                Points:         240
 PW_GRID| Volume element (a.u.^3)  0.1318E-01     Volume (a.u.^3)    182205.0337
 PW_GRID| Grid span                                                    FULLSPACE
 PW_GRID|   Distribution                         Average         Max         Min
 PW_GRID|   G-Vectors                           144000.0      144480      143760
 PW_GRID|   G-Rays                                 600.0         602         599
 PW_GRID|   Real Space Points                   144000.0      172800      115200

 PW_GRID| Information for grid number                                          3
 PW_GRID| Number of the reference grid                                         1
 PW_GRID| Grid distributed over                                    96 processors
 PW_GRID| Real space group dimensions                                    96    1
 PW_GRID| the grid is blocked:                                                NO
 PW_GRID| Cutoff [a.u.]                                                     27.8
 PW_GRID| spherical cutoff:                                                   NO
 PW_GRID|   Bounds   1            -67      67                Points:         135
 PW_GRID|   Bounds   2            -67      67                Points:         135
 PW_GRID|   Bounds   3            -67      67                Points:         135
 PW_GRID| Volume element (a.u.^3)  0.7406E-01     Volume (a.u.^3)    182205.0337
 PW_GRID| Grid span                                                    FULLSPACE
 PW_GRID|   Distribution                         Average         Max         Min
 PW_GRID|   G-Vectors                            25628.9       25785       25515
 PW_GRID|   G-Rays                                 189.8         191         189
 PW_GRID|   Real Space Points                    25628.9       36450       18225

 PW_GRID| Information for grid number                                          4
 PW_GRID| Number of the reference grid                                         1
 PW_GRID| Grid distributed over                                    96 processors
 PW_GRID| Real space group dimensions                                     8   12
 PW_GRID| the grid is blocked:                                                NO
 PW_GRID| Cutoff [a.u.]                                                      9.3
 PW_GRID| spherical cutoff:                                                   NO
 PW_GRID|   Bounds   1            -40      39                Points:          80
 PW_GRID|   Bounds   2            -40      39                Points:          80
 PW_GRID|   Bounds   3            -40      39                Points:          80
 PW_GRID| Volume element (a.u.^3)  0.3559         Volume (a.u.^3)    182205.0337
 PW_GRID| Grid span                                                    FULLSPACE
 PW_GRID|   Distribution                         Average         Max         Min
 PW_GRID|   G-Vectors                             5333.3        5520        5200
 PW_GRID|   G-Rays                                  66.7          69          65
 PW_GRID|   Real Space Points                     5333.3        5600        4800

 POISSON| Solver                                                         WAVELET
 POISSON| Wavelet| Scaling function                                           40
 POISSON| Periodicity                                                       NONE

 RS_GRID| Information for grid number                                          1
 RS_GRID|   Bounds   1           -202     202                Points:         405
 RS_GRID|   Bounds   2           -202     202                Points:         405
 RS_GRID|   Bounds   3           -202     202                Points:         405
 RS_GRID| Real space distribution over                                  4 groups
 RS_GRID| Real space distribution along direction                              1
 RS_GRID| Border size                                                         30
 RS_GRID| Real space distribution over                                  4 groups
 RS_GRID| Real space distribution along direction                              2
 RS_GRID| Border size                                                         30
 RS_GRID| Real space distribution over                                  6 groups
 RS_GRID| Real space distribution along direction                              3
 RS_GRID| Border size                                                         30
 RS_GRID|   Distribution                         Average         Max         Min
 RS_GRID|   Planes                                 161.2         162         161
 RS_GRID|   Distribution                         Average         Max         Min
 RS_GRID|   Planes                                 161.2         162         161
 RS_GRID|   Distribution                         Average         Max         Min
 RS_GRID|   Planes                                 127.5         128         127

 RS_GRID| Information for grid number                                          2
 RS_GRID|   Bounds   1           -120     119                Points:         240
 RS_GRID|   Bounds   2           -120     119                Points:         240
 RS_GRID|   Bounds   3           -120     119                Points:         240
 RS_GRID| Real space distribution over                                  4 groups
 RS_GRID| Real space distribution along direction                              1
 RS_GRID| Border size                                                         33
 RS_GRID| Real space distribution over                                  4 groups
 RS_GRID| Real space distribution along direction                              2
 RS_GRID| Border size                                                         33
 RS_GRID| Real space distribution over                                  6 groups
 RS_GRID| Real space distribution along direction                              3
 RS_GRID| Border size                                                         33
 RS_GRID|   Distribution                         Average         Max         Min
 RS_GRID|   Planes                                 126.0         126         126
 RS_GRID|   Distribution                         Average         Max         Min
 RS_GRID|   Planes                                 126.0         126         126
 RS_GRID|   Distribution                         Average         Max         Min
 RS_GRID|   Planes                                 106.0         106         106

 RS_GRID| Information for grid number                                          3
 RS_GRID|   Bounds   1            -67      67                Points:         135
 RS_GRID|   Bounds   2            -67      67                Points:         135
 RS_GRID|   Bounds   3            -67      67                Points:         135
 RS_GRID| Real space fully replicated
 RS_GRID| Group size                                                           1

 RS_GRID| Information for grid number                                          4
 RS_GRID|   Bounds   1            -40      39                Points:          80
 RS_GRID|   Bounds   2            -40      39                Points:          80
 RS_GRID|   Bounds   3            -40      39                Points:          80
 RS_GRID| Real space fully replicated
 RS_GRID| Group size                                                           1

  HFX_INFO| Replica ID:                                                        1
  HFX_INFO| FRACTION:                                               0.2500000000
  HFX_INFO| Interaction Potential:                                       COULOMB
  HFX_INFO| EPS_SCHWARZ:                                                 1.0E-10
  HFX_INFO| EPS_SCHWARZ_FORCES                                           1.0E-08
  HFX_INFO| EPS_STORAGE_SCALING:                                         1.0E+00
  HFX_INFO| NBINS:                                                            64
  HFX_INFO| BLOCK_SIZE:                                                        1
  HFX_INFO| Number of periodic shells considered:                           NONE
  HFX_INFO| Number of periodic cells considered:                            NONE


 OVERLAP MATRIX CONDITION NUMBER
 1-Norm Condition Number (Estimate)
   CN : |A|*|A^-1|:  6.870E+000 *  2.969E+002   = 2.040E+003  Log(1-CN):  3.3096
 1-Norm and 2-Norm Condition Numbers using Diagonalization
   CN : |A|*|A^-1|:  6.870E+000 *  2.969E+002   = 2.040E+003  Log(1-CN):  3.3096
   CN : max/min ev:  5.143E+000 /  5.884E-003   = 8.740E+002  Log(2-CN):  2.9415

 Number of electrons:                                                         16
 Number of occupied orbitals:                                                  8
 Number of molecular orbitals:                                                 8

 Number of orbital functions:                                                 38
 Number of independent orbital functions:                                     38

 Extrapolation method: initial_guess

 *** WARNING in qs_initial_guess.F:306 :: User requested to restart the    ***
 *** wavefunction from the file named: MoS2-RESTART.wfn. This file does    ***
 *** not exist. Please check the existence of the file or change properly  ***
 *** the value of the keyword WFN_RESTART_FILE_NAME. Calculation continues ***
 *** using ATOMIC GUESS.                                                   ***


 Atomic guess: The first density matrix is obtained in terms of atomic orbitals
               and electronic configurations assigned to each atomic kind

 Guess for atomic kind: H

 Electronic structure
    Total number of core electrons                                          0.00
    Total number of valence electrons                                       1.00
    Total number of electrons                                               1.00
    Multiplicity                                                   not specified
    S      1.00


 *******************************************************************************
                  Iteration          Convergence                     Energy [au]
 *******************************************************************************
                          1        0.645465E-02                  -0.443631123483
                          2        0.932618E-03                  -0.443685732765
                          3        0.519913E-06                  -0.443686896372

 Energy components [Hartree]           Total Energy ::           -0.443686896372
                                        Band Energy ::           -0.225436097088
                                     Kinetic Energy ::            0.430574518289
                                   Potential Energy ::           -0.874261414661
                                      Virial (-V/T) ::            2.030453214314
                                        Core Energy ::           -0.496536053916
                                          XC Energy ::           -0.237394005036
                                     Coulomb Energy ::            0.290243162580

 Orbital energies  State     L     Occupation   Energy[a.u.]          Energy[eV]

                       1     0          1.000      -0.225436           -6.134428


 Total Electron Density at R=0:                                         0.220668

 Guess for atomic kind: N

 Electronic structure
    Total number of core electrons                                          0.00
    Total number of valence electrons                                       7.00
    Total number of electrons                                               7.00
    Multiplicity                                                   not specified
    S      2.00  2.00
    P      3.00


 *******************************************************************************
                  Iteration          Convergence                     Energy [au]
 *******************************************************************************
                          1        0.301551                     -53.973815306340
                          2        0.236385                     -53.983090543973
                          3        0.208022E-03                 -53.998986912883
                          4        0.118436E-04                 -53.998986915072
                          5        0.107309E-07                 -53.998986915114

 Energy components [Hartree]           Total Energy ::          -53.998986915114
                                        Band Energy ::          -29.999077661618
                                     Kinetic Energy ::           54.085149820813
                                   Potential Energy ::         -108.084136735928
                                      Virial (-V/T) ::            1.998406902708
                                        Core Energy ::          -73.782684889681
                                          XC Energy ::           -6.177276544954
                                     Coulomb Energy ::           25.960974519520

 Orbital energies  State     L     Occupation   Energy[a.u.]          Energy[eV]

                       1     0          2.000     -13.985047         -380.552488
                       2     0          2.000      -0.654080          -17.798415

                       1     1          3.000      -0.240275           -6.538204


 Total Electron Density at R=0:                                       197.077767
 Re-scaling the density matrix to get the right number of electrons
                  # Electrons              Trace(P)               Scaling factor
                           16                16.000                        1.000


 SCF WAVEFUNCTION OPTIMIZATION

  ----------------------------------- OT ---------------------------------------
  Minimizer      : CG                  : conjugate gradient
  Preconditioner : FULL_SINGLE_INVERSE : inversion of 
                                         H + eS - 2*(Sc)(c^T*H*c+const)(Sc)^T
  Precond_solver : DEFAULT
  Line search    : 3PNT                : 3 energies
  stepsize       :    0.08000000                  energy_gap     :    0.08000000
  eps_taylor     :   0.10000E-15                  max_taylor     :             4
  ----------------------------------- OT ---------------------------------------

  Step     Update method      Time    Convergence         Total energy    Change
  ------------------------------------------------------------------------------

  HFX_MEM_INFO| Est. max. program size before HFX [MiB]:                     640
  HFX_MEM_INFO| Number of cart. primitive ERI's calculated:              5123986
  HFX_MEM_INFO| Number of sph. ERI's calculated:                          512986
  HFX_MEM_INFO| Number of sph. ERI's stored in-core:                      512986
  HFX_MEM_INFO| Number of sph. ERI's stored on disk:                           0
  HFX_MEM_INFO| Number of sph. ERI's calculated on the fly:                    0
  HFX_MEM_INFO| Total memory consumption ERI's RAM [MiB]:                      4
  HFX_MEM_INFO| Whereof max-vals [MiB]:                                        3
  HFX_MEM_INFO| Total compression factor ERI's RAM:                         0.99
  HFX_MEM_INFO| Total memory consumption ERI's disk [MiB]:                     0
  HFX_MEM_INFO| Total compression factor ERI's disk:                        0.00
  HFX_MEM_INFO| Size of density/Fock matrix [MiB]:                             0
  HFX_MEM_INFO| Size of buffers [MiB]:                                         0
  HFX_MEM_INFO| Est. max. program size after HFX  [MiB]:                    1167

     1 OT CG       0.64E-01    2.8     1.07502153       -99.7807248296 -9.98E+01
     2 OT LS       0.90E-01    1.0                     -108.2085853360
     3 OT LS       0.50E-01    1.0                     -103.2661784542
     4 OT CG       0.40E-01    1.5     0.20207625      -108.9829363911 -9.20E+00
     5 OT LS       0.56E-01    1.0                     -109.3805620220
     6 OT LS       0.11E+00    1.0                     -109.4873724691
     7 OT CG       0.84E-01    1.4     0.06809749      -109.6295943825 -6.47E-01
     8 OT LS       0.12E+00    1.0                     -109.7410825881
     9 OT LS       0.47E+00    1.1                     -109.7812312171
    10 OT CG       0.38E+00    1.4     0.08756785      -110.0521588731 -4.23E-01
    11 OT LS       0.19E+00    1.0                     -108.3072233664
    12 OT LS       0.71E-01    1.1                     -109.8800940783
    13 OT CG       0.57E-01    1.4     0.04664792      -110.1556272907 -1.03E-01
    14 OT LS       0.80E-01    1.0                     -110.1892789940
    15 OT LS       0.23E+00    1.0                     -110.2000423674
    16 OT CG       0.18E+00    1.4     0.05318336      -110.2322057421 -7.66E-02
    17 OT LS       0.91E-01    1.0                     -110.1914485551
    18 OT LS       0.72E-01    1.1                     -110.2609094946
    19 OT CG       0.58E-01    1.4     0.03573681      -110.2630735980 -3.09E-02
    20 OT LS       0.81E-01    1.0                     -110.2831937378
    21 OT LS       0.29E+00    1.0                     -110.2899735309
    22 OT CG       0.23E+00    1.4     0.03905552      -110.3184540234 -5.54E-02
    23 OT LS       0.32E+00    1.1                     -110.3649266055
    24 OT LS       0.20E+00    1.0                     -110.3495304739
    25 OT CG       0.16E+00    1.4     0.05033661      -110.3657260517 -4.73E-02
    26 OT LS       0.23E+00    1.0                     -110.4043651382
    27 OT LS       0.12E+00    1.0                     -110.3715114908
    28 OT CG       0.94E-01    1.4     0.02086815      -110.4109276901 -4.52E-02
    29 OT LS       0.13E+00    1.0                     -110.4190508036
    30 OT LS       0.14E+00    1.0                     -110.4199134037
    31 OT CG       0.11E+00    1.4     0.02306129      -110.4199253527 -9.00E-03
    32 OT LS       0.15E+00    1.0                     -110.4313424948
    33 OT LS       0.16E+00    1.0                     -110.4324724783
    34 OT CG       0.12E+00    1.4     0.02073342      -110.4324782930 -1.26E-02
    35 OT LS       0.17E+00    1.1                     -110.4461407414
    36 OT LS       0.39E+00    1.0                     -110.4501457721
    37 OT CG       0.31E+00    1.4     0.01916165      -110.4577730793 -2.53E-02
    38 OT LS       0.16E+00    1.0                     -110.4326869811
    39 OT LS       0.90E-01    1.0                     -110.4601698973
    40 OT CG       0.72E-01    1.4     0.01603832      -110.4627784520 -5.01E-03
    41 OT LS       0.10E+00    1.0                     -110.4673442988
    42 OT LS       0.19E+00    1.0                     -110.4685670505
    43 OT CG       0.15E+00    1.4     0.01429035      -110.4701683974 -7.39E-03
    44 OT LS       0.21E+00    1.0                     -110.4781629361
    45 OT LS       0.52E+00    1.0                     -110.4805951032
    46 OT CG       0.41E+00    1.4     0.01515963      -110.4863370950 -1.62E-02
    47 OT LS       0.21E+00    1.0                     -110.4429941707
    48 OT LS       0.85E-01    1.1                     -110.4830114113
    49 OT CG       0.68E-01    1.4     0.01178829      -110.4893506013 -3.01E-03
    50 OT LS       0.95E-01    1.0                     -110.4917056708
    51 OT LS       0.19E+00    1.0                     -110.4923665804
    52 OT CG       0.15E+00    1.4     0.00977943      -110.4934194853 -4.07E-03
    53 OT LS       0.22E+00    1.0                     -110.4969203397
    54 OT LS       0.35E+00    1.0                     -110.4977680399
    55 OT CG       0.28E+00    1.4     0.01603432      -110.4985215279 -5.10E-03
    56 OT LS       0.14E+00    1.1                     -110.4858996812
    57 OT LS       0.89E-01    1.0                     -110.5009278943
    58 OT CG       0.72E-01    1.4     0.00685902      -110.5020432312 -3.52E-03
    59 OT LS       0.10E+00    1.0                     -110.5028626854
    60 OT LS       0.18E+00    1.0                     -110.5030741795
    61 OT CG       0.14E+00    1.4     0.00797874      -110.5033138271 -1.27E-03
    62 OT LS       0.20E+00    1.1                     -110.5044753331
    63 OT LS       0.12E+00    1.0                     -110.5040539361
    64 OT CG       0.98E-01    1.5     0.00687272      -110.5045031848 -1.19E-03
    65 OT LS       0.14E+00    1.0                     -110.5057650683
    66 OT LS       0.47E+00    1.0                     -110.5061870045
    67 OT CG       0.37E+00    1.4     0.00637507      -110.5078646374 -3.36E-03
    68 OT LS       0.19E+00    1.0                     -110.5007425094
    69 OT LS       0.73E-01    1.0                     -110.5072349842
    70 OT CG       0.59E-01    1.4     0.00424604      -110.5083188531 -4.54E-04
    71 OT LS       0.82E-01    1.0                     -110.5085919002
    72 OT LS       0.19E+00    1.0                     -110.5086735766
    73 OT CG       0.15E+00    1.4     0.00331817      -110.5088465675 -5.28E-04
    74 OT LS       0.22E+00    1.1                     -110.5092767460
    75 OT LS       0.47E+00    1.0                     -110.5094010450
    76 OT CG       0.37E+00    1.4     0.00574556      -110.5096246516 -7.78E-04
    77 OT LS       0.19E+00    1.0                     -110.5046391603
    78 OT LS       0.79E-01    1.0                     -110.5093006039
    79 OT CG       0.63E-01    1.4     0.00301617      -110.5100207754 -3.96E-04
    80 OT LS       0.89E-01    1.0                     -110.5101634058
    81 OT LS       0.17E+00    1.1                     -110.5102022491
    82 OT CG       0.14E+00    1.4     0.00191255      -110.5102566222 -2.36E-04
    83 OT LS       0.19E+00    1.0                     -110.5103712855
    84 OT LS       0.28E+00    1.0                     -110.5103963899
    85 OT CG       0.22E+00    1.4     0.00341850      -110.5104118694 -1.55E-04
    86 OT LS       0.31E+00    1.0                     -110.5106037188
    87 OT LS       0.15E+00    1.0                     -110.5103445938
    88 OT CG       0.12E+00    1.4     0.00230896      -110.5106732938 -2.61E-04
    89 OT LS       0.17E+00    1.0                     -110.5107927328
    90 OT LS       0.16E+00    1.0                     -110.5108004217
    91 OT CG       0.13E+00    1.4     0.00190476      -110.5108007313 -1.27E-04
    92 OT LS       0.18E+00    1.0                     -110.5108362175
    93 OT LS       0.85E-01    1.0                     -110.5107925263
    94 OT CG       0.68E-01    1.4     0.00109832      -110.5108473618 -4.66E-05
    95 OT LS       0.95E-01    1.0                     -110.5108705837
    96 OT LS       0.38E+00    1.0                     -110.5108789848
    97 OT CG       0.30E+00    1.4     0.00131530      -110.5109365785 -8.92E-05
    98 OT LS       0.15E+00    1.0                     -110.5108570542
    99 OT LS       0.11E+00    1.0                     -110.5109656332
   100 OT CG       0.86E-01    1.4     0.00125855      -110.5109713768 -3.48E-05
   101 OT LS       0.12E+00    1.0                     -110.5110031135
   102 OT LS       0.18E+00    1.0                     -110.5110103369
   103 OT CG       0.15E+00    1.4     0.00130739      -110.5110154619 -4.41E-05
   104 OT LS       0.73E-01    1.0                     -110.5110071680
   105 OT LS       0.66E-01    1.1                     -110.5110324181
   106 OT CG       0.53E-01    1.5     0.00078069      -110.5110326218 -1.72E-05
   107 OT LS       0.74E-01    1.1                     -110.5110408968
   108 OT LS       0.17E+00    1.0                     -110.5110433586
   109 OT CG       0.14E+00    1.4     0.00052371      -110.5110484407 -1.58E-05
   110 OT LS       0.19E+00    1.1                     -110.5110554482
   111 OT LS       0.18E+00    1.0                     -110.5110557969
   112 OT CG       0.14E+00    1.4     0.00075668      -110.5110558412 -7.40E-06
   113 OT LS       0.20E+00    1.0                     -110.5110725926
   114 OT LS       0.22E+00    1.0                     -110.5110748321
   115 OT CG       0.18E+00    1.4     0.00054849      -110.5110750148 -1.92E-05
   116 OT LS       0.25E+00    1.1                     -110.5110772625
   117 OT LS       0.10E+00    1.0                     -110.5110703926
   118 OT CG       0.82E-01    1.4     0.00047139      -110.5110796979 -4.68E-06
   119 OT LS       0.11E+00    1.0                     -110.5110834621
   120 OT LS       0.13E+00    1.0                     -110.5110839768
   121 OT CG       0.10E+00    1.4     0.00026784      -110.5110840241 -4.33E-06
   122 OT LS       0.14E+00    1.0                     -110.5110859265
   123 OT LS       0.34E+00    1.0                     -110.5110865015
   124 OT CG       0.28E+00    1.4     0.00047106      -110.5110877823 -3.76E-06
   125 OT LS       0.14E+00    1.0                     -110.5110777871
   126 OT LS       0.90E-01    1.0                     -110.5110899344
   127 OT CG       0.72E-01    1.4     0.00024189      -110.5110908075 -3.03E-06
   128 OT LS       0.10E+00    1.0                     -110.5110918563
   129 OT LS       0.20E+00    1.0                     -110.5110921486
   130 OT CG       0.16E+00    1.5     0.00014962      -110.5110925987 -1.79E-06
   131 OT LS       0.23E+00    1.0                     -110.5110926648
   132 OT LS       0.86E-01    1.0                     -110.5110921142
   133 OT CG       0.69E-01    1.4     0.00013124      -110.5110928904 -2.92E-07
   134 OT LS       0.96E-01    1.0                     -110.5110932125
   135 OT LS       0.33E+00    1.0                     -110.5110933207
   136 OT CG       0.27E+00    1.4     0.00013911      -110.5110937624 -8.72E-07
   137 OT LS       0.37E+00    1.1                     -110.5110938947
   138 OT LS       0.15E+00    1.0                     -110.5110931440
   139 OT CG       0.12E+00    1.4     0.00014553      -110.5110941904 -4.28E-07
   140 OT LS       0.16E+00    1.0                     -110.5110945350
   141 OT LS       0.11E+00    1.0                     -110.5110944462
   142 OT CG       0.86E-01    1.4     0.00006732      -110.5110945373 -3.47E-07
   143 OT LS       0.12E+00    1.0                     -110.5110946211
   144 OT LS       0.15E+00    1.0                     -110.5110946350
   145 OT CG       0.12E+00    1.4     0.00008039      -110.5110946382 -1.01E-07
   146 OT LS       0.16E+00    1.0                     -110.5110947861
   147 OT LS       0.16E+00    1.0                     -110.5110947992
   148 OT CG       0.13E+00    1.4     0.00006595      -110.5110947992 -1.61E-07
   149 OT LS       0.18E+00    1.0                     -110.5110949258
   150 OT LS       0.24E+00    1.0                     -110.5110949503
   151 OT CG       0.19E+00    1.4     0.00006693      -110.5110949599 -1.61E-07
   152 OT LS       0.97E-01    1.0                     -110.5110948683
   153 OT LS       0.72E-01    1.0                     -110.5110950032
   154 OT CG       0.58E-01    1.4     0.00003819      -110.5110950091 -4.92E-08
   155 OT LS       0.81E-01    1.1                     -110.5110950314
   156 OT LS       0.23E+00    1.0                     -110.5110950386
   157 OT CG       0.18E+00    1.4     0.00003334      -110.5110950597 -5.06E-08
   158 OT LS       0.26E+00    1.0                     -110.5110950948
   159 OT LS       0.21E+00    1.0                     -110.5110950939
   160 OT CG       0.17E+00    1.4     0.00004927      -110.5110950955 -3.58E-08
   161 OT LS       0.24E+00    1.0                     -110.5110951233
   162 OT LS       0.11E+00    1.0                     -110.5110950800
   163 OT CG       0.87E-01    1.4     0.00002147      -110.5110951357 -4.02E-08
   164 OT LS       0.12E+00    1.1                     -110.5110951453
   165 OT LS       0.20E+00    1.0                     -110.5110951477
   166 OT CG       0.16E+00    1.4     0.00002242      -110.5110951500 -1.43E-08
   167 OT LS       0.23E+00    1.1                     -110.5110951531
   168 OT LS       0.93E-01    1.0                     -110.5110951421
   169 OT CG       0.75E-01    1.5     0.00001736      -110.5110951571 -7.14E-09
   170 OT LS       0.10E+00    1.0                     -110.5110951633
   171 OT LS       0.37E+00    1.0                     -110.5110951653
   172 OT CG       0.30E+00    1.4     0.00002450      -110.5110951741 -1.70E-08
   173 OT LS       0.15E+00    1.0                     -110.5110951238
   174 OT LS       0.77E-01    1.0                     -110.5110951751
   175 OT CG       0.62E-01    1.4     0.00001197      -110.5110951812 -7.05E-09
   176 OT LS       0.86E-01    1.0                     -110.5110951835
   177 OT LS       0.21E+00    1.0                     -110.5110951842
   178 OT CG       0.17E+00    1.4     0.00001027      -110.5110951857 -4.53E-09
   179 OT LS       0.23E+00    1.0                     -110.5110951867
   180 OT LS       0.10E+00    1.0                     -110.5110951847
   181 OT CG       0.82E-01    1.4     0.00001031      -110.5110951874 -1.64E-09
   182 OT LS       0.11E+00    1.0                     -110.5110951897
   183 OT LS       0.34E+00    1.0                     -110.5110951904
   184 OT CG       0.27E+00    1.4     0.00000845      -110.5110951928 -5.47E-09
   185 OT LS       0.14E+00    1.1                     -110.5110951927
   186 OT LS       0.13E+00    1.0                     -110.5110951943
   187 OT CG       0.11E+00    1.4     0.00000832      -110.5110951943 -1.43E-09
   188 OT LS       0.15E+00    1.0                     -110.5110951952
   189 OT LS       0.91E-01    1.1                     -110.5110951949
   190 OT CG       0.73E-01    1.4     0.00000400      -110.5110951952 -9.61E-10
   191 OT LS       0.10E+00    1.0                     -110.5110951956
   192 OT LS       0.41E+00    1.0                     -110.5110951957
   193 OT CG       0.33E+00    1.4     0.00000664      -110.5110951963 -1.10E-09
   194 OT LS       0.16E+00    1.0                     -110.5110951932
   195 OT LS       0.99E-01    1.1                     -110.5110951967
   196 OT CG       0.79E-01    1.4     0.00000474      -110.5110951970 -7.30E-10
   197 OT LS       0.11E+00    1.1                     -110.5110951975
   198 OT LS       0.22E+00    1.0                     -110.5110951976
   199 OT CG       0.18E+00    1.4     0.00000443      -110.5110951978 -7.58E-10
   200 OT LS       0.89E-01    1.1                     -110.5110951975
   201 OT LS       0.71E-01    1.0                     -110.5110951980
   202 OT CG       0.57E-01    1.4     0.00000246      -110.5110951980 -2.13E-10
   203 OT LS       0.80E-01    1.0                     -110.5110951981
   204 OT LS       0.32E+00    1.0                     -110.5110951982
   205 OT CG       0.26E+00    1.4     0.00000362      -110.5110951983 -3.04E-10
   206 OT LS       0.13E+00    1.0                     -110.5110951981
   207 OT LS       0.11E+00    1.0                     -110.5110951985
   208 OT CG       0.87E-01    1.4     0.00000321      -110.5110951985 -2.24E-10
   209 OT LS       0.12E+00    1.1                     -110.5110951988
   210 OT LS       0.23E+00    1.1                     -110.5110951988
   211 OT CG       0.18E+00    1.4     0.00000188      -110.5110951989 -3.58E-10
   212 OT LS       0.25E+00    1.0                     -110.5110951989
   213 OT LS       0.93E-01    1.0                     -110.5110951988
   214 OT CG       0.74E-01    1.4     0.00000178      -110.5110951990 -5.01E-11
   215 OT LS       0.10E+00    1.1                     -110.5110951990
   216 OT LS       0.28E+00    1.0                     -110.5110951990
   217 OT CG       0.22E+00    1.4     0.00000206      -110.5110951991 -1.33E-10
   218 OT LS       0.31E+00    1.0                     -110.5110951992
   219 OT LS       0.23E+00    1.0                     -110.5110951992
   220 OT CG       0.19E+00    1.4     0.00000258      -110.5110951992 -1.47E-10
   221 OT LS       0.93E-01    1.0                     -110.5110951992
   222 OT LS       0.89E-01    1.0                     -110.5110951993
   223 OT CG       0.71E-01    1.4     0.00000108      -110.5110951993 -8.96E-11
   224 OT LS       0.99E-01    1.1                     -110.5110951993
   225 OT LS       0.15E+00    1.0                     -110.5110951993
   226 OT CG       0.12E+00    1.4     0.00000122      -110.5110951994 -2.69E-11
   227 OT LS       0.17E+00    1.0                     -110.5110951994
   228 OT LS       0.15E+00    1.0                     -110.5110951994
   229 OT CG       0.12E+00    1.4     0.00000120      -110.5110951994 -3.50E-11
   230 OT LS       0.17E+00    1.0                     -110.5110951994
   231 OT LS       0.31E+00    1.0                     -110.5110951994
   232 OT CG       0.24E+00    1.4     0.00000106      -110.5110951995 -6.70E-11
   233 OT LS       0.12E+00    1.1                     -110.5110951994
   234 OT LS       0.63E-01    1.0                     -110.5110951995
   235 OT CG       0.51E-01    1.5     0.00000054      -110.5110951995 -1.07E-11

  *** SCF run converged in   235 steps ***


  Electronic density on regular grids:        -12.2525666005        3.7474333995
  Core density on regular grids:               16.0000000000       -0.0000000000
  Hard and soft densities (Lebedev):          -24.0664022457      -20.3189689324
  Total Rho_soft + Rho1_hard - Rho1_soft      -15.9999999139
  Total charge density (r-space):               0.0000000861
  Total Rho_soft + Rho0_soft (g-space):         0.0000000655

  Overlap energy of the core charge distribution:               0.00000036187014
  Self energy of the core charge distribution:                -98.42010140410798
  Core Hamiltonian energy:                                    -13.90139333620344
  Hartree energy:                                              34.14882712342123
  Exchange-correlation energy:                                 -4.55485523184927
  Hartree-Fock Exchange energy:                                -3.45955748976965

  GAPW| Exc from hard and soft atomic rho1:                    -6.34694742301834
  GAPW| local Eh = 1 center integrals:                        -17.97706779980770

  Total energy:                                              -110.51109519946502

  outer SCF iter =    1 RMS gradient =   0.54E-06 energy =       -110.5110951995
  outer SCF loop converged in   1 iterations or  235 steps


 !-----------------------------------------------------------------------------!
                     Mulliken Population Analysis

 #  Atom  Element  Kind  Atomic population                           Net charge
       1     H        1          0.901947                              0.098053
       2     N        2          7.098053                             -0.098053
       3     N        2          7.098052                             -0.098052
       4     H        1          0.901949                              0.098051
 # Total charge                             16.000000                 -0.000000

 !-----------------------------------------------------------------------------!

 !-----------------------------------------------------------------------------!
                           Hirshfeld Charges

  #Atom  Element  Kind  Ref Charge     Population                    Net charge
      1       H      1       1.000          0.473                         0.527
      2       N      2       7.000          7.526                        -0.526
      3       N      2       7.000          7.526                        -0.526
      4       H      1       1.000          0.473                         0.527

  Total Charge                                                            0.002
 !-----------------------------------------------------------------------------!

 *******************************************************************************
 **                                                                           **
 **         ######## #######   #######   ######## #######  ########           **
 **            ##    ##     ## ##     ## ##       ##   ##     ##              **
 **            ##    ##     ## ##     ## ######   #######     ##              **
 **            ##    ##     ## ##     ## ##       ##          ##              **
 **            ##    #######   #######   ##       ##          ##              **
 **                                                                           **
 *******************************************************************************
 KERNEL|                                                                    FULL
 FUNCTIONAL| PBE:
 FUNCTIONAL| J.P.Perdew, K.Burke, M.Ernzerhof, Phys. Rev. Letter, vol. 77, n 18,
 FUNCTIONAL|  pp. 3865-3868, (1996)sx=0.750sc=1.000{spin unpolarized}           
 KERNEL|                                                          Exact Exchange
 KERNEL| Spin symmetry of excitations                                    Singlet
 TDDFPT| Number of states calculated                                          20
 TDDFPT| Number of Davidson iterations                                       100
 TDDFPT| Davidson iteration convergence                                0.367E-07
 TDDFPT| Max. number of Krylov space vectors                                5000
 TDDFPT| Molecular Orbitals:        Spin       AOs       Occ      Virt     Total
 TDDFPT|                               1        38         8        30        38
 
 -------------------------------------------------------------------------------
 -                            TDDFPT Initial Guess                             -
 -------------------------------------------------------------------------------
          State         Occupied      ->      Virtual          Excitation
          number         orbital              orbital          energy (eV)
 -------------------------------------------------------------------------------
             1                8                    9              5.71016
             2                8                   10              8.23446
             3                7                    9              9.31807
             4                6                    9              9.71759
             5                8                   11             10.41862
             6                7                   10             11.84237
             7                6                   10             12.24189
[...]
 qs_ks_build_kohn_sham_matrix       235  7.0    0.032    0.038  216.950  216.955
 qs_energies_properties               1  3.0    0.000    0.000  176.160  176.160
 tddfpt                               1  4.0    0.000    0.000  176.160  176.160
 tddfpt_energies                      1  5.0    0.000    0.001  176.127  176.127
 tddfpt_davidson_solver               1  6.0    0.001    0.002  175.083  175.083
 fft_wrap_pw1pw2                   5711 10.5    0.113    0.154  170.090  174.244
 tddfpt_compute_Aop_evects            6  7.0    0.000    0.000  173.958  173.958
 pw_poisson_solve                   355  8.7    4.618    5.582  167.727  167.951
 fft_wrap_pw1pw2_250               4043 11.8    7.011    8.286  163.689  167.816
 fhxc_kernel                          6  8.0    0.006    0.007  161.130  161.130
 fft3d_ps                          5711 12.5   62.386   78.525  139.930  145.275
 ps_wavelet_solve                   355  9.7   79.557   90.788  102.419  103.854
 qs_rho_update_rho_low              357  6.4    0.004    0.004   81.974   81.977
 calculate_rho_elec                 357  7.4    1.736    2.059   81.829   81.833
 mp_alltoall_d54                    355 10.7   13.187   78.875   13.187   78.875
 xc_pw_derive                      1665 11.0    0.019    0.023   74.256   74.627
 mp_alltoall_z22v                  5711 14.5   65.016   70.662   65.016   70.662
 tddfpt_apply_coulomb               120  9.0    0.003    0.004   67.091   67.274
 density_rs2pw                      357  8.4    0.022    0.026   56.077   57.284
 qs_vxc_create                      235  8.0    0.003    0.003   50.881   50.881
 yz_to_x                           2579 13.4    4.261    5.119   37.724   41.521
 tddfpt_apply_xc_analytic           120  9.0    0.169    0.226   40.297   40.877
 x_to_yz                           2576 13.8    7.627    8.878   39.137   40.454
 xc_pw_divergence                   199 10.6    0.009    0.011   36.420   36.880
 xc_rho_set_and_dset_create         236 10.0    0.574    0.701   33.004   35.530
 transfer_rs2pw                    1785  9.5    0.055    0.076   30.685   31.194
 prepare_gapw_den                   356  8.3    0.005    0.005   28.129   28.535
 mp_alltoall_d11v                 13332 11.9   19.556   28.175   19.556   28.175
 put_rho0_on_grid                   356  9.3    1.754    2.102   27.512   27.918
 xc_vxc_pw_create                    79  9.0    0.520    0.640   26.820   26.821
 integrate_v_rspace                 199  9.0    0.005    0.006   25.773   25.860
 transfer_pw2rs                    1152 10.6    0.017    0.020   25.152   25.701
 potential_pw2rs                    199 10.0    0.069    0.075   25.141   25.281
 xc_exc_calc                        156  9.0    0.757    0.898   24.058   24.058
 xc_calc_2nd_deriv_analytical       600 10.1    1.430    1.510   23.889   23.963
 grid_collocate_task_list           357  8.4   22.609   23.417   22.609   23.417
 integrate_four_center              475  9.5    9.972   20.814   22.204   22.438
 mp_sync                           2665 11.4   10.996   20.821   10.996   20.821
 mp_waitany                       54750 12.0   18.522   20.662   18.522   20.662
 transfer_rs2pw_250                 714 10.8    7.517    7.893   16.936   17.577
 transfer_pw2rs_250                 555 11.1    5.775    6.122   15.977   16.519
 mp_alltoall_d45                    356 10.7    8.927   15.348    8.927   15.348
 integrate_vhg0_rspace              355  8.7    0.065    0.096   13.986   14.033
 tddfpt_apply_hfx                     6  8.0    0.002    0.003   12.340   12.340
 hfx_ks_matrix                      235  8.0    0.008    0.009   11.309   11.527
 tddft_hfx_matrix                   240  9.0    0.006    0.007   10.913   10.976
 sum_up_and_integrate                79  8.0    0.001    0.001   10.301   10.330
 pw_scatter_p                      2775 12.8    9.912   10.153    9.912   10.153
 pw_gather_p                       2936 12.3    8.045    8.971    8.045    8.971
 pw_derive                         2730 11.5    8.048    8.659    8.048    8.659
 cp2k_distribution_to_z_slices      355  9.7    3.406    3.655    8.007    8.569
 mp_sum_d                          6753  9.8    6.770    8.331    6.770    8.331
 transfer_rs2pw_30                  357 10.4    3.359    3.538    7.817    7.943
 fft_wrap_pw1pw2_90                 556 10.9    0.190    0.280    4.848    6.160
 mp_waitall_1                    504190 13.4    3.783    6.025    3.783    6.025
 transfer_pw2rs_30                  199 12.0    3.377    3.832    5.593    5.863
 pw_copy                           4310 10.7    5.491    5.842    5.491    5.842
 dbcsr_multiply_generic            3840  9.9    0.154    0.163    5.709    5.750
 mp_sendrecv_dv                   67830 11.4    5.449    5.668    5.449    5.668
 qs_scf_new_mos                     235  5.0    0.001    0.001    5.619    5.626
 qs_scf_loop_do_ot                  235  6.0    0.001    0.001    5.618    5.625
 pw_poisson_set                     356  9.7    0.012    0.015    5.493    5.589
 ot_scf_mini                        235  7.0    0.003    0.003    5.251    5.258
 rs_grid_zero                      1466 11.2    4.372    4.725    4.372    4.725
 transfer_rs2pw_90                  357 10.4    1.113    1.300    4.269    4.505
 pw_integral_ab_c1d_c1d_gs          355  9.7    2.595    2.618    3.104    3.552
 pw_copy_to_array                  2936 12.3    2.902    3.333    2.902    3.333
 cp_dbcsr_sm_fm_multiply            769  8.5    0.014    0.016    3.118    3.196
 multiply_cannon                   3840 10.9    0.346    0.354    2.990    3.087
 pw_axpy                           2898  9.9    2.684    2.911    2.684    2.911
 transfer_pw2rs_90                  199 12.0    0.630    0.712    2.557    2.895
 xc_functional_eval                1656 10.9    0.002    0.006    0.922    2.756
 pbe_lda_eval                      1656 11.9    0.920    2.755    0.920    2.755
 init_scf_loop                        1  4.0    0.000    0.000    2.739    2.739
 mp_isend_dv                     213381 13.5    1.689    2.621    1.689    2.621
 qs_ot_get_p                        236  8.0    0.001    0.002    2.454    2.457
 pw_copy_from_array                2775 12.8    1.943    2.453    1.943    2.453
 multiply_cannon_loop              3840 11.9    0.574    0.594    2.217    2.311
 dbcsr_complete_redistribute       2899 10.8    0.098    0.128    2.167    2.240
 pw_zero                           2820 10.4    2.005    2.160    2.005    2.160
 mp_isendrecv_dv                 128060 11.9    1.043    2.147    1.043    2.147
 qs_ot_p2m_diag                     235  9.0    0.005    0.007    1.865    1.873
 ot_mini                            235  8.0    0.001    0.001    1.745    1.760
 make_m2s                          7680 10.9    0.125    0.133    1.673    1.731
 mp_irecv_dm3                     10950 12.0    0.941    1.727    0.941    1.727
 mp_sum_dm                         4302  8.8    1.213    1.651    1.213    1.651
 transfer_rs2pw_10                  357 10.4    0.617    0.657    1.609    1.649
 copy_dbcsr_to_fm                  1044  9.8    0.013    0.014    1.614    1.628
 qs_ot_get_derivative                79  9.0    0.001    0.001    1.603    1.605
 calculate_xc_2nd_deriv_atom        120  9.0    0.025    0.512    0.060    1.574
 mp_isend_dm3                     10950 12.0    0.868    1.560    0.868    1.560
 mp_max_i                           819  5.6    1.036    1.403    1.036    1.403
 copy_fm_to_dbcsr                  1853  9.8    0.008    0.008    1.297    1.371
 gaVxcgb_GC                         398  9.6    0.028    1.344    0.028    1.344
 calculate_vxc_atom                 235  8.0    0.073    0.537    1.334    1.334
 make_images                       7680 11.9    0.301    0.306    1.206    1.243
 qs_ot_get_derivative_diag           78 10.0    0.002    0.002    1.232    1.234
 create_qs_kind_set                   1  2.0    0.000    0.000    1.172    1.172
 read_qs_kind                         2  3.0    0.636    0.646    1.172    1.172
 transfer_pw2rs_10                  199 12.0    0.364    0.401    1.009    1.168
 fft_wrap_pw1pw2_30                 556 10.9    0.035    0.040    1.034    1.155
 cp_dbcsr_syevd                     235 10.0    0.012    0.013    1.131    1.133
 cp_dbcsr_sm_fm_multiply_core       769  9.5    0.002    0.002    1.049    1.074
 scale_and_distribute               710 10.7    0.887    0.995    0.887    0.995
 Vh_1c_gg_integrals                 355  8.7    0.021    0.139    0.764    0.962
 mp_alltoall_i11v                  9976 11.8    0.928    0.929    0.928    0.929
 cp_fm_syevd                        283 10.4    0.002    0.002    0.840    0.843
 pw_poisson_rebuild                 355  9.7    0.000    0.001    0.819    0.833
 ps_wavelet_create                    1 10.0    0.000    0.000    0.818    0.833
 RS_z_slice_distribution              1 11.0    0.679    0.774    0.818    0.833
 qs_ot_get_orbitals                 235  8.0    0.001    0.001    0.713    0.719
 rs_gather_matrices                 199 10.0    0.002    0.005    0.574    0.691
 tddfpt_orthonormalize_psi1_psi       7  6.9    0.011    0.012    0.689    0.689
 dbcsr_desymmetrize_deep           1045 10.7    0.019    0.020    0.626    0.637
 cp_fm_redistribute_end             283 11.4    0.368    0.607    0.375    0.615
 grid_integrate_task_list           199 10.0    0.052    0.570    0.052    0.570
 calculate_rho_atom                 712  9.3    0.318    0.570    0.318    0.570
 parser_read_line                134832  4.0    0.047    0.051    0.536    0.544
 cp_dbcsr_plus_fm_fm_t              121  9.0    0.002    0.002    0.533    0.536
 multiply_cannon_metrocomm4       84480 12.9    0.250    0.263    0.480    0.508
 prepare_dr1dr                      600 11.1    0.426    0.504    0.426    0.504
 parser_read_line_low               148  5.0    0.048    0.221    0.489    0.497
 tddfpt_apply_energy_diff             6  8.0    0.000    0.001    0.488    0.488
 cp_fm_syevd_base                   283 11.4    0.237    0.476    0.237    0.476
 multiply_cannon_metrocomm2       80640 12.9    0.239    0.255    0.438    0.475
 mp_sum_dv                        15800 10.7    0.443    0.466    0.443    0.466
 mp_sum_l                         17457 10.7    0.433    0.466    0.433    0.466
 make_images_sizes                 7680 12.9    0.008    0.009    0.434    0.455
 broadcast_input_information        148  6.0    0.112    0.122    0.441    0.450
 mp_alltoall_i44                   7680 13.9    0.426    0.447    0.426    0.447
 fft_wrap_pw1pw2_10                 556 10.9    0.009    0.009    0.405    0.428
 tddfpt_print_nto_analysis            1  6.0    0.002    0.003    0.422    0.422
 multiply_cannon_metrocomm3       92160 12.9    0.145    0.149    0.357    0.414
 tddfpt_compute_residual_vects        5  7.0    0.001    0.001    0.413    0.413
 integrate_four_center_getP         475 10.5    0.069    0.073    0.395    0.406
 integrate_four_center_dist_KS      475 10.5    0.069    0.073    0.399    0.402
 mp_alltoall_i22                   4022 11.8    0.305    0.387    0.305    0.387
 hybrid_alltoall_any               8725 13.6    0.067    0.074    0.354    0.378
 calculate_dm_sparse                236  7.0    0.001    0.001    0.368    0.373
 mp_rank_compare                   5711 13.5    0.342    0.368    0.342    0.368
 dbcsr_make_images_dense           5504 11.9    0.083    0.088    0.247    0.339
 tddfpt_construct_ground_state_       1  6.0    0.000    0.000    0.311    0.312
 init_scf_run                         1  3.0    0.000    0.000    0.310    0.310
 scf_env_initial_rho_setup            1  4.0    0.000    0.000    0.310    0.310
 multiply_cannon_metrocomm1       92160 12.9    0.101    0.105    0.237    0.309
 dbcsr_create_new                 78829 12.4    0.220    0.230    0.295    0.307
 powell_optimize                 118841 11.0    0.291    0.304    0.291    0.304
 integrate_four_center_main         475 10.5    0.063    0.112    0.084    0.298
 parallel_gemm_fm                  1031  8.3    0.001    0.001    0.263    0.273
 parallel_gemm_fm_gemm             1031  9.3    0.001    0.001    0.261    0.272
 cp_fm_gemm                        1031 10.3    0.260    0.271    0.260    0.271
 dbcsr_finalize                    9220 11.3    0.044    0.058    0.209    0.266
 pw_scale                           556  9.5    0.231    0.264    0.231    0.264
 mp_alltoall_z11v                   556 13.9    0.235    0.258    0.235    0.258
 vxc_of_r_new                       940  9.0    0.000    0.019    0.005    0.251
 dbcsr_make_dense_low             16034 12.8    0.079    0.081    0.120    0.244
 qs_init_subsys                       1  2.0    0.003    0.004    0.241    0.241
 calc_screening_functions             1 10.0    0.082    0.084    0.228    0.237
 qs_env_setup                         1  3.0    0.000    0.000    0.234    0.234
 qs_env_rebuild_pw_env                2  3.5    0.000    0.000    0.233    0.233
 pw_env_rebuild                       1  5.0    0.001    0.001    0.232    0.233
 cp_fm_redistribute_start           283 11.4    0.179    0.186    0.226    0.229
 integrate_four_center_bin        40914 11.5    0.021    0.228    0.021    0.228
 mp_allgather_i34                  3840 11.9    0.204    0.226    0.204    0.226
 pw_grid_setup                        4  6.0    0.000    0.000    0.225    0.225
 pw_grid_setup_internal               4  7.0    0.006    0.008    0.225    0.225
 arnoldi_extremal                   236  9.0    0.004    0.005    0.217    0.221
 xc_2nd_deriv_of_r                  480 10.0    0.001    0.039    0.005    0.220
 make_images_data                  7680 12.9    0.074    0.096    0.161    0.219
 arnoldi_normal_ev                  237 10.0    0.004    0.004    0.214    0.218
 calc_pair_dist_radii                 1 10.0    0.066    0.071    0.211    0.218
 create_kernel_env                    1  6.0    0.000    0.000    0.195    0.211
 xc_prep_2nd_deriv                    1  7.0    0.000    0.000    0.194    0.211
 mp_bcast_i_src                     592  7.0    0.176    0.197    0.176    0.197
 mp_irecv_dv                     212356 13.5    0.151    0.193    0.151    0.193
 mp_cart_sub                       2091 11.7    0.184    0.185    0.184    0.185
 dbcsr_special_finalize           19200 12.9    0.048    0.050    0.154    0.185
 multiply_cannon_multrec          92160 12.9    0.116    0.166    0.131    0.182
 mp_bcast_am_src                    148  7.0    0.128    0.147    0.150    0.174
 rs_grid_create                     361  9.6    0.002    0.003    0.022    0.170
 offload_create_buffer              363 10.6    0.021    0.168    0.021    0.168
 cp_fm_geeig                         20  7.0    0.001    0.001    0.160    0.161
 pw_grid_sort                         4  8.0    0.107    0.110    0.156    0.160
 cp_fm_trace_a1b1t1_aa             7470  8.0    0.034    0.036    0.157    0.159
 xz_to_yz                           357 12.4    0.013    0.015    0.146    0.155
 dbcsr_merge_all                   8056 12.3    0.094    0.116    0.117    0.150
 build_subspace                     237 11.0    0.008    0.009    0.146    0.149
 mp_cart_create                    1759 10.8    0.138    0.146    0.140    0.149
 mp_isend_iv                     180479 13.9    0.136    0.146    0.136    0.146
 calculate_rho_atom_coeff           357  7.4    0.019    0.047    0.142    0.143
 dbcsr_iterator_start             61443 12.4    0.061    0.114    0.075    0.138
 ot_new_cg_direction                 79  9.0    0.001    0.001    0.133    0.133
 yz_to_xz                           199 14.0    0.011    0.012    0.114    0.132
 dbcsr_destroy                    76640 11.5    0.093    0.097    0.123    0.129
 make_dense_data                  16034 13.8    0.006    0.052    0.008    0.126
 apply_preconditioner_dbcsr          80 10.0    0.000    0.000    0.119    0.122
 apply_single                        80 11.0    0.000    0.000    0.119    0.122
 dbcsr_matrix_vector_mult          1658 12.0    0.015    0.016    0.079    0.116
 qs_energies_init_hamiltonians        1  3.0    0.000    0.000    0.114    0.114
 build_core_hamiltonian_matrix        1  4.0    0.000    0.000    0.107    0.107
 overlap_condnum                      1  5.0    0.000    0.000    0.105    0.106
 dbcsr_data_new                  213430 13.0    0.085    0.105    0.085    0.105
 dbcsr_data_release              356693 13.2    0.089    0.100    0.089    0.100
 rs_scatter_matrices                357  8.4    0.003    0.005    0.094    0.097
 setup_buffer_matrices             7680 11.9    0.028    0.030    0.085    0.090
 dbcsr_iterator_stop              61443 12.4    0.045    0.076    0.055    0.090
 mp_irecv_iv                     180480 13.9    0.078    0.086    0.078    0.086
 arnoldi_conjugate_gradient           5  6.0    0.002    0.003    0.083    0.083
 dbcsr_work_create                28379 12.5    0.051    0.056    0.072    0.083
 dbcsr_make_dense                  2274 11.1    0.009    0.010    0.048    0.082
 dbcsr_new_transposed              1732 10.8    0.010    0.010    0.077    0.081
 mp_sum_b                          5505 10.9    0.077    0.079    0.077    0.079
 dbcsr_add_d                       1160  9.0    0.002    0.002    0.010    0.075
 dbcsr_add_anytype                 1160 10.0    0.002    0.011    0.009    0.073
 dbcsr_work_destroy_all           28379 13.4    0.047    0.052    0.062    0.070
 update_ks_atom                     355  8.3    0.015    0.029    0.056    0.068
 dbcsr_sym_matrix_vector_mult       440  7.9    0.007    0.008    0.051    0.067
 dbcsr_merge_single_wm             7830 13.5    0.037    0.043    0.044    0.064
 scf_post_calculation_gpw             1  3.0    0.000    0.000    0.063    0.063
 write_available_results              1  4.0    0.000    0.000    0.063    0.063
 write_mo_free_results                1  5.0    0.006    0.008    0.063    0.063
 copy_fm_to_dbcsr_bc               1853 10.8    0.019    0.020    0.056    0.062
 dbcsr_make_undense                2274 11.1    0.015    0.027    0.029    0.061
 xc_pw_smooth                        79 10.0    0.000    0.000    0.042    0.058
 dbcsr_col_vec_to_rep_row          2098 12.1    0.015    0.016    0.035    0.058
 tddfpt_compute_ritz_vects            6  7.0    0.003    0.004    0.057    0.057
 quick_finalize                   12493 14.0    0.026    0.032    0.044    0.056
 dbcsr_mm_multrec_init             3840 11.9    0.007    0.008    0.051    0.055
 sort_shells                          4  9.0    0.049    0.054    0.049    0.054
 dbcsr_copy                        6871  9.9    0.022    0.023    0.050    0.053
 tddfpt_orthogonalize_psi1_psi0       7  6.9    0.000    0.000    0.044    0.051
 mp_bcast_dm                       3078  9.5    0.047    0.050    0.047    0.050
 dbcsr_redistribute                  78 12.0    0.002    0.002    0.049    0.050
 dbcsr_mm_csr_init                 3840 12.9    0.035    0.038    0.044    0.048
 dbcsr_make_index_list            19200 11.9    0.044    0.047    0.044    0.047
 dbcsr_make_untransposed_blocks    5069 10.9    0.028    0.028    0.045    0.046
 mp_cart_rank                    136428 10.2    0.041    0.046    0.041    0.046
 -------------------------------------------------------------------------------

 The number of warnings for this run is : 2
 
 -------------------------------------------------------------------------------
  **** **** ******  **  PROGRAM ENDED AT                 2025-04-28 05:33:17.324
 ***** ** ***  *** **   PROGRAM RAN ON                              i03r03c02s06
 **    ****   ******    PROGRAM RAN BY                                   di38fab
 ***** **    ** ** **   PROGRAM PROCESS ID                               2061592
  **** **  *******  **  PROGRAM STOPPED IN /hppfs/scratch/04/di38fab/07_MOL_non_
                                           aug/05_MOL_non_aug/05_MOL/W4-11+ALK/c
                                           -n2h2/cc-pVDZ/TDDFT
