 DBCSR| CPU Multiplication driver                                           BLAS (U)
 DBCSR| Multrec recursion limit                                              512 (U)
 DBCSR| Multiplication stack size                                           1000 (D)
 DBCSR| Maximum elements for images                                    UNLIMITED (U)
 DBCSR| Multiplicative factor virtual images                                   1 (U)
 DBCSR| Use multiplication densification                                       T (D)
 DBCSR| Multiplication size stacks                                             3 (U)
 DBCSR| Use memory pool for CPU allocation                                     F (U)
 DBCSR| Number of 3D layers                                               SINGLE (U)
 DBCSR| Use MPI memory allocation                                              F (U)
 DBCSR| Use RMA algorithm                                                      F (U)
 DBCSR| Use Communication thread                                               T (U)
 DBCSR| Communication thread load                                             75 (D)
 DBCSR| MPI: My process id                                                     0
 DBCSR| MPI: Number of processes                                             216
 DBCSR| OMP: Current number of threads                                         4
 DBCSR| OMP: Max number of threads                                             4
 DBCSR| Split modifier for TAS multiplication algorithm                  1.0E+00 (U)


  **** **** ******  **  PROGRAM STARTED AT               2025-03-29 10:44:41.413
 ***** ** ***  *** **   PROGRAM STARTED ON                          i04r05c05s12
 **    ****   ******    PROGRAM STARTED BY                               di38fab
 ***** **    ** ** **   PROGRAM PROCESS ID                               2259616
  **** **  *******  **  PROGRAM STARTED IN /hppfs/scratch/04/di38fab/07_MOL_non_
                                           aug/05_MOL_non_aug/05_MOL/aUKBqsEOTmq
                                           69kFe5R_nOg/5k_set_final_qzvp/BIRYIK1
                                           0/SZV/GW+BSE

 CP2K| version string:                 CP2K version 2025.1 (Development Version)
 CP2K| source code revision number:                                  git:d2e611a
 CP2K| cp2kflags: omp libint fftw3 libxc parallel scalapack max_contr=4         
 CP2K| is freely available from                            https://www.cp2k.org/
 CP2K| Program compiled at                       Thu 06 Mar 2025 05:09:20 PM CET
 CP2K| Program compiled on                                               login02
 CP2K| Program compiled for                                        Supermuc-foss
 CP2K| Data directory path                  /hppfs/work/pn36zo/di38fab/cp2k/data
 CP2K| Input file name                                                    GW.inp

 GLOBAL| Force Environment number                                              1
 GLOBAL| Basis set file name            /hppfs/scratch/04/di38fab/04_TMD/BASIS_A
 GLOBAL| Potential file name            /hppfs/work/pn36zo/di38fab/cp2k/data/ALL
 GLOBAL| MM Potential file name                                     MM_POTENTIAL
 GLOBAL| Coordinate file name                                      __STD_INPUT__
 GLOBAL| Method name                                                        CP2K
 GLOBAL| Project name                                                       MoS2
 GLOBAL| Run type                                                         ENERGY
 GLOBAL| FFT library                                                       FFTW3
 GLOBAL| Diagonalization library                                       ScaLAPACK
 GLOBAL| DGEMM library                                                      BLAS
 GLOBAL| Orthonormality check for eigenvectors                          DISABLED
 GLOBAL| Matrix multiplication library                                 ScaLAPACK
 GLOBAL| All-to-all communication in single precision                          F
 GLOBAL| FFTs using library dependent lengths                                  F
 GLOBAL| Grid backend                                                       AUTO
 GLOBAL| Global print level                                               MEDIUM
 GLOBAL| MPI I/O enabled                                                       T
 GLOBAL| Total number of message passing processes                           216
 GLOBAL| Number of threads for this process                                    4
 GLOBAL| This output is from process                                           0
 GLOBAL| OpenMP stack size per thread (OMP_STACKSIZE)                    default
 GLOBAL| CPU model name             Intel(R) Xeon(R) Platinum 8174 CPU @ 3.10GHz

 MEMORY| system memory details [Kb]
 MEMORY|                        rank 0           min           max       average
 MEMORY| MemTotal             98436664      98436648      98436736      98436677
 MEMORY| MemFree              84100264      83610388      85142404      83971366
 MEMORY| Buffers                     0             0             0             0
 MEMORY| Cached                2397092       2361644       2615476       2408195
 MEMORY| Slab                  1187604       1016848       1277308       1224069
 MEMORY| SReclaimable           268532        234192        285440        271212
 MEMORY| MemLikelyFree        86765888      86272188      87738240      86650775


 *** Fundamental physical constants (SI units) ***

 *** Literature: B. J. Mohr and B. N. Taylor,
 ***             CODATA recommended values of the fundamental physical
 ***             constants: 2006, Web Version 5.1
 ***             http://physics.nist.gov/constants

 Speed of light in vacuum [m/s]                             2.99792458000000E+08
 Magnetic constant or permeability of vacuum [N/A**2]       1.25663706143592E-06
 Electric constant or permittivity of vacuum [F/m]          8.85418781762039E-12
 Planck constant (h) [J*s]                                  6.62606896000000E-34
 Planck constant (h-bar) [J*s]                              1.05457162825177E-34
 Elementary charge [C]                                      1.60217648700000E-19
 Electron mass [kg]                                         9.10938215000000E-31
 Electron g factor [ ]                                     -2.00231930436220E+00
 Proton mass [kg]                                           1.67262163700000E-27
 Fine-structure constant                                    7.29735253760000E-03
 Rydberg constant [1/m]                                     1.09737315685270E+07
 Avogadro constant [1/mol]                                  6.02214179000000E+23
 Boltzmann constant [J/K]                                   1.38065040000000E-23
 Atomic mass unit [kg]                                      1.66053878200000E-27
 Bohr radius [m]                                            5.29177208590000E-11

 *** Conversion factors ***

 [u] -> [a.u.]                                              1.82288848426455E+03
 [Angstrom] -> [Bohr] = [a.u.]                              1.88972613288564E+00
 [a.u.] = [Bohr] -> [Angstrom]                              5.29177208590000E-01
 [a.u.] -> [s]                                              2.41888432650478E-17
 [a.u.] -> [fs]                                             2.41888432650478E-02
 [a.u.] -> [J]                                              4.35974393937059E-18
 [a.u.] -> [N]                                              8.23872205491840E-08
 [a.u.] -> [K]                                              3.15774647902944E+05
 [a.u.] -> [kJ/mol]                                         2.62549961709828E+03
 [a.u.] -> [kcal/mol]                                       6.27509468713739E+02
 [a.u.] -> [Pa]                                             2.94210107994716E+13
 [a.u.] -> [bar]                                            2.94210107994716E+08
 [a.u.] -> [atm]                                            2.90362800883016E+08
 [a.u.] -> [eV]                                             2.72113838565563E+01
 [a.u.] -> [Hz]                                             6.57968392072181E+15
 [a.u.] -> [1/cm] (wave numbers)                            2.19474631370540E+05
 [a.u./Bohr**2] -> [1/cm]                                   5.14048714338585E+03
 

 CELL_TOP| Volume [angstrom^3]:                                     27000.000000
 CELL_TOP| Vector a [angstrom    30.000     0.000     0.000   |a| =    30.000000
 CELL_TOP| Vector b [angstrom     0.000    30.000     0.000   |b| =    30.000000
 CELL_TOP| Vector c [angstrom     0.000     0.000    30.000   |c| =    30.000000
 CELL_TOP| Angle (b,c), alpha [degree]:                                90.000000
 CELL_TOP| Angle (a,c), beta  [degree]:                                90.000000
 CELL_TOP| Angle (a,b), gamma [degree]:                                90.000000
 CELL_TOP| Numerically orthorhombic:                                         YES
 CELL_TOP| Periodicity                                                      NONE

 GENERATE|  Preliminary Number of Bonds generated:                             0
 GENERATE|  Achieved consistency in connectivity generation.

 CELL| Volume [angstrom^3]:                                         27000.000000
 CELL| Vector a [angstrom]:      30.000     0.000     0.000   |a| =    30.000000
 CELL| Vector b [angstrom]:       0.000    30.000     0.000   |b| =    30.000000
 CELL| Vector c [angstrom]:       0.000     0.000    30.000   |c| =    30.000000
 CELL| Angle (b,c), alpha [degree]:                                    90.000000
 CELL| Angle (a,c), beta  [degree]:                                    90.000000
 CELL| Angle (a,b), gamma [degree]:                                    90.000000
 CELL| Numerically orthorhombic:                                             YES
 CELL| Periodicity                                                          NONE

 CELL_REF| Volume [angstrom^3]:                                     27000.000000
 CELL_REF| Vector a [angstrom    30.000     0.000     0.000   |a| =    30.000000
 CELL_REF| Vector b [angstrom     0.000    30.000     0.000   |b| =    30.000000
 CELL_REF| Vector c [angstrom     0.000     0.000    30.000   |c| =    30.000000
 CELL_REF| Angle (b,c), alpha [degree]:                                90.000000
 CELL_REF| Angle (a,c), beta  [degree]:                                90.000000
 CELL_REF| Angle (a,b), gamma [degree]:                                90.000000
 CELL_REF| Numerically orthorhombic:                                         YES
 CELL_REF| Periodicity                                                      NONE

 *******************************************************************************
 *******************************************************************************
 **                                                                           **
 **     #####                         ##              ##                      **
 **    ##   ##            ##          ##              ##                      **
 **   ##     ##                       ##            ######                    **
 **   ##     ##  ##   ##  ##   #####  ##  ##   ####   ##    #####    #####    **
 **   ##     ##  ##   ##  ##  ##      ## ##   ##      ##   ##   ##  ##   ##   **
 **   ##  ## ##  ##   ##  ##  ##      ####     ###    ##   ######   ######    **
 **    ##  ###   ##   ##  ##  ##      ## ##      ##   ##   ##       ##        **
 **     #######   #####   ##   #####  ##  ##  ####    ##    #####   ##        **
 **           ##                                                    ##        **
 **                                                                           **
 **                                                ... make the atoms dance   **
 **                                                                           **
 **            Copyright (C) by CP2K developers group (2000-2025)             **
 **                      J. Chem. Phys. 152, 194103 (2020)                    **
 **                                                                           **
 *******************************************************************************

 DFT| Spin restricted Kohn-Sham (RKS) calculation                            RKS
 DFT| Multiplicity                                                             1
 DFT| Number of spin states                                                    1
 DFT| Charge                                                                   0
 DFT| Self-interaction correction (SIC)                                       NO
 DFT| Cutoffs: density                                              1.000000E-10
 DFT|          gradient                                             1.000000E-10
 DFT|          tau                                                  1.000000E-10
 DFT|          cutoff_smoothing_range                               0.000000E+00
 DFT| XC density smoothing                                                  NONE
 DFT| XC derivatives                                                          PW

 FUNCTIONAL| PBE:
 FUNCTIONAL| J.P.Perdew, K.Burke, M.Ernzerhof, Phys. Rev. Letter, vol. 77, n 18,
 FUNCTIONAL|  pp. 3865-3868, (1996)sx=0.750sc=1.000{spin unpolarized}           


 QS| Method:                                                                GAPW
 QS| Density plane wave grid type                        NON-SPHERICAL FULLSPACE
 QS| Number of grid levels:                                                    4
 QS| Density cutoff [a.u.]:                                                250.0
 QS| Multi grid cutoff [a.u.]: 1) grid level                               250.0
 QS|                           2) grid level                                83.3
 QS|                           3) grid level                                27.8
 QS|                           4) grid level                                 9.3
 QS| Grid level progression factor:                                          3.0
 QS| Relative density cutoff [a.u.]:                                        50.0
 QS| Interaction thresholds: eps_pgf_orb:                                1.0E-12
 QS|                         eps_filter_matrix:                          0.0E+00
 QS|                         eps_core_charge:                            1.0E-14
 QS|                         eps_rho_gspace:                             1.0E-12
 QS|                         eps_rho_rspace:                             1.0E-12
 QS|                         eps_gvg_rspace:                             1.0E-06
 QS|                         eps_ppl:                                    1.0E-02
 QS|                         eps_ppnl:                                   1.0E-08
 QS| GAPW|      One center basis from orbital basis primitives
 QS| GAPW|                   eps_fit:                                    1.0E-04
 QS| GAPW|                   eps_iso:                                    1.0E-12
 QS| GAPW|                   eps_svd:                                    1.0E-08
 QS| GAPW|                   eps_cpc:                                    1.0E-12
 QS| GAPW|   atom-r-grid: quadrature:                                     GC_LOG
 QS| GAPW|      atom-s-grid:  max l :                                          4
 QS| GAPW|      max_l_rho0 :                                                   2


 ATOMIC KIND INFORMATION

  1. Atomic kind: C                                     Number of atoms:       5

     Orbital Basis Set                                         SVP-MOLOPT-GGA-ae

       Number of orbital shell sets:                                           2
       Number of orbital shells:                                               6
       Number of primitive Cartesian functions:                               11
       Number of Cartesian basis functions:                                   15
       Number of spherical basis functions:                                   14
       Norm type:                                                              2

       Normalised Cartesian orbitals:

                        Set   Shell   Orbital            Exponent    Coefficient

                          1       1    2px               4.145546       1.425967
                                                         0.937529       0.673511
                                                         0.300899       0.144116
                                                         0.096935       0.005344
                          1       1    2py               4.145546       1.425967
                                                         0.937529       0.673511
                                                         0.300899       0.144116
                                                         0.096935       0.005344
                          1       1    2pz               4.145546       1.425967
                                                         0.937529       0.673511
                                                         0.300899       0.144116
                                                         0.096935       0.005344

                          1       2    3px               4.145546      -0.833488
                                                         0.937529      -0.414500
                                                         0.300899       0.082631
                                                         0.096935       0.066903
                          1       2    3py               4.145546      -0.833488
                                                         0.937529      -0.414500
                                                         0.300899       0.082631
                                                         0.096935       0.066903
                          1       2    3pz               4.145546      -0.833488
                                                         0.937529      -0.414500
                                                         0.300899       0.082631
                                                         0.096935       0.066903

                          1       3    3dx2              4.145546       0.718979
                                                         0.937529       0.830801
                                                         0.300899       0.105504
                                                         0.096935       0.001258
                          1       3    3dxy              4.145546       1.245309
                                                         0.937529       1.438990
                                                         0.300899       0.182739
                                                         0.096935       0.002179
                          1       3    3dxz              4.145546       1.245309
                                                         0.937529       1.438990
                                                         0.300899       0.182739
                                                         0.096935       0.002179
                          1       3    3dy2              4.145546       0.718979
                                                         0.937529       0.830801
                                                         0.300899       0.105504
                                                         0.096935       0.001258
                          1       3    3dyz              4.145546       1.245309
                                                         0.937529       1.438990
                                                         0.300899       0.182739
                                                         0.096935       0.002179
                          1       3    3dz2              4.145546       0.718979
                                                         0.937529       0.830801
                                                         0.300899       0.105504
                                                         0.096935       0.001258

                          2       1    1s             1238.394264      -0.490536
                                                       186.270922       1.801845
                                                        40.805234       2.242010
                                                        10.501907       2.110671
                                                         3.176528       0.666384
                                                         0.523772      -0.029268
                                                         0.161278       0.024253

                          2       2    2s             1238.394264       0.147138
                                                       186.270922      -0.108171
                                                        40.805234       0.350132
                                                        10.501907      -0.033488
                                                         3.176528      -0.079506
                                                         0.523772       0.279468
                                                         0.161278       0.080328

                          2       3    3s             1238.394264     -12.484315
                                                       186.270922       1.755878
                                                        40.805234      -2.174132
                                                        10.501907      -0.974990
                                                         3.176528      -0.308205
                                                         0.523772      -0.382710
                                                         0.161278       0.225687

     RI Auxiliary Basis Set                                    aug-cc-pV5Z-OPTRI

       Number of orbital shell sets:                                          22
       Number of orbital shells:                                              22
       Number of primitive Cartesian functions:                               22
       Number of Cartesian basis functions:                                  188
       Number of spherical basis functions:                                  122
       Norm type:                                                              2

       Normalised Cartesian orbitals:

                        Set   Shell   Orbital            Exponent    Coefficient

                          1       1    1gx4              0.114786       0.002892
                          1       1    1gx3y             0.114786       0.007650
                          1       1    1gx3z             0.114786       0.007650
                          1       1    1gx2y2            0.114786       0.009877
                          1       1    1gx2yz            0.114786       0.017107
                          1       1    1gx2z2            0.114786       0.009877
                          1       1    1gxy3             0.114786       0.007650
                          1       1    1gxy2z            0.114786       0.017107
                          1       1    1gxyz2            0.114786       0.017107
                          1       1    1gxz3             0.114786       0.007650
                          1       1    1gy4              0.114786       0.002892
                          1       1    1gy3z             0.114786       0.007650
                          1       1    1gy2z2            0.114786       0.009877
                          1       1    1gyz3             0.114786       0.007650
                          1       1    1gz4              0.114786       0.002892

                          2       1    1px               0.121920       0.102691
                          2       1    1py               0.121920       0.102691
                          2       1    1pz               0.121920       0.102691

                          3       1    1s                0.152658       0.174060

                          4       1    1px               0.299745       0.316140
                          4       1    1py               0.299745       0.316140
                          4       1    1pz               0.299745       0.316140

                          5       1    1s                0.384933       0.348296

                          6       1    1hx5              0.391317       0.035161
                          6       1    1hx4y             0.391317       0.105483
                          6       1    1hx4z             0.391317       0.105483
                          6       1    1hx3y2            0.391317       0.161128
                          6       1    1hx3yz            0.391317       0.279083
                          6       1    1hx3z2            0.391317       0.161128
                          6       1    1hx2y3            0.391317       0.161128
                          6       1    1hx2y2z           0.391317       0.360294
                          6       1    1hx2yz2           0.391317       0.360294
                          6       1    1hx2z3            0.391317       0.161128
                          6       1    1hxy4             0.391317       0.105483
                          6       1    1hxy3z            0.391317       0.279083
                          6       1    1hxy2z2           0.391317       0.360294
                          6       1    1hxyz3            0.391317       0.279083
                          6       1    1hxz4             0.391317       0.105483
                          6       1    1hy5              0.391317       0.035161
                          6       1    1hy4z             0.391317       0.105483
                          6       1    1hy3z2            0.391317       0.161128
                          6       1    1hy2z3            0.391317       0.161128
                          6       1    1hyz4             0.391317       0.105483
                          6       1    1hz5              0.391317       0.035161

                          7       1    1fx3              0.540840       0.369283
                          7       1    1fx2y             0.540840       0.825742
                          7       1    1fx2z             0.540840       0.825742
                          7       1    1fxy2             0.540840       0.825742
                          7       1    1fxyz             0.540840       1.430227
                          7       1    1fxz2             0.540840       0.825742
                          7       1    1fy3              0.540840       0.369283
                          7       1    1fy2z             0.540840       0.825742
                          7       1    1fyz2             0.540840       0.825742
                          7       1    1fz3              0.540840       0.369283

                          8       1    1px               0.678328       0.877485
                          8       1    1py               0.678328       0.877485
                          8       1    1pz               0.678328       0.877485

                          9       1    1dx2              0.754246       1.004748
                          9       1    1dxy              0.754246       1.740275
                          9       1    1dxz              0.754246       1.740275
                          9       1    1dy2              0.754246       1.004748
                          9       1    1dyz              0.754246       1.740275
                          9       1    1dz2              0.754246       1.004748

                         10       1    1gx4              1.012792       1.152434
                         10       1    1gx3y             1.012792       3.049054
                         10       1    1gx3z             1.012792       3.049054
                         10       1    1gx2y2            1.012792       3.936312
                         10       1    1gx2yz            1.012792       6.817893
                         10       1    1gx2z2            1.012792       3.936312
                         10       1    1gxy3             1.012792       3.049054
                         10       1    1gxy2z            1.012792       6.817893
                         10       1    1gxyz2            1.012792       6.817893
                         10       1    1gxz3             1.012792       3.049054
                         10       1    1gy4              1.012792       1.152434
                         10       1    1gy3z             1.012792       3.049054
                         10       1    1gy2z2            1.012792       3.936312
                         10       1    1gyz3             1.012792       3.049054
                         10       1    1gz4              1.012792       1.152434

                         11       1    1s                1.103587       0.767388

                         12       1    1ix6              1.245967       1.020534
                         12       1    1ix5y             1.245967       3.384727
                         12       1    1ix5z             1.245967       3.384727
                         12       1    1ix4y2            1.245967       5.862520
                         12       1    1ix4yz            1.245967      10.154182
                         12       1    1ix4z2            1.245967       5.862520
                         12       1    1ix3y3            1.245967       6.936627
                         12       1    1ix3y2z           1.245967      15.510769
                         12       1    1ix3yz2           1.245967      15.510769
                         12       1    1ix3z3            1.245967       6.936627
                         12       1    1ix2y4            1.245967       5.862520
                         12       1    1ix2y3z           1.245967      15.510769
                         12       1    1ix2y2z2          1.245967      20.024317
                         12       1    1ix2yz3           1.245967      15.510769
                         12       1    1ix2z4            1.245967       5.862520
                         12       1    1ixy5             1.245967       3.384727
                         12       1    1ixy4z            1.245967      10.154182
                         12       1    1ixy3z2           1.245967      15.510769
                         12       1    1ixy2z3           1.245967      15.510769
                         12       1    1ixyz4            1.245967      10.154182
                         12       1    1ixz5             1.245967       3.384727
                         12       1    1iy6              1.245967       1.020534
                         12       1    1iy5z             1.245967       3.384727
                         12       1    1iy4z2            1.245967       5.862520
                         12       1    1iy3z3            1.245967       6.936627
                         12       1    1iy2z4            1.245967       5.862520
                         12       1    1iyz5             1.245967       3.384727
                         12       1    1iz6              1.245967       1.020534

                         13       1    1fx3              1.255807       2.457712
                         13       1    1fx2y             1.255807       5.495611
                         13       1    1fx2z             1.255807       5.495611
                         13       1    1fxy2             1.255807       5.495611
                         13       1    1fxyz             1.255807       9.518677
                         13       1    1fxz2             1.255807       5.495611
                         13       1    1fy3              1.255807       2.457712
                         13       1    1fy2z             1.255807       5.495611
                         13       1    1fyz2             1.255807       5.495611
                         13       1    1fz3              1.255807       2.457712

                         14       1    1px               1.626163       2.617551
                         14       1    1py               1.626163       2.617551
                         14       1    1pz               1.626163       2.617551

                         15       1    1dx2              1.990505       5.490289
                         15       1    1dxy              1.990505       9.509459
                         15       1    1dxz              1.990505       9.509459
                         15       1    1dy2              1.990505       5.490289
                         15       1    1dyz              1.990505       9.509459
                         15       1    1dz2              1.990505       5.490289

                         16       1    1hx5              2.339630      11.750937
                         16       1    1hx4y             2.339630      35.252812
                         16       1    1hx4z             2.339630      35.252812
                         16       1    1hx3y2            2.339630      53.849559
                         16       1    1hx3yz            2.339630      93.270173
                         16       1    1hx3z2            2.339630      53.849559
                         16       1    1hx2y3            2.339630      53.849559
                         16       1    1hx2y2z           2.339630     120.411275
                         16       1    1hx2yz2           2.339630     120.411275
                         16       1    1hx2z3            2.339630      53.849559
                         16       1    1hxy4             2.339630      35.252812
                         16       1    1hxy3z            2.339630      93.270173
                         16       1    1hxy2z2           2.339630     120.411275
                         16       1    1hxyz3            2.339630      93.270173
                         16       1    1hxz4             2.339630      35.252812
                         16       1    1hy5              2.339630      11.750937
                         16       1    1hy4z             2.339630      35.252812
                         16       1    1hy3z2            2.339630      53.849559
                         16       1    1hy2z3            2.339630      53.849559
                         16       1    1hyz4             2.339630      35.252812
                         16       1    1hz5              2.339630      11.750937

                         17       1    1gx4              3.524920      35.570986
                         17       1    1gx3y             3.524920      94.111983
                         17       1    1gx3z             3.524920      94.111983
                         17       1    1gx2y2            3.524920     121.498047
                         17       1    1gx2yz            3.524920     210.440791
                         17       1    1gx2z2            3.524920     121.498047
                         17       1    1gxy3             3.524920      94.111983
                         17       1    1gxy2z            3.524920     210.440791
                         17       1    1gxyz2            3.524920     210.440791
                         17       1    1gxz3             3.524920      94.111983
                         17       1    1gy4              3.524920      35.570986
                         17       1    1gy3z             3.524920      94.111983
                         17       1    1gy2z2            3.524920     121.498047
                         17       1    1gyz3             3.524920      94.111983
                         17       1    1gz4              3.524920      35.570986

                         18       1    1px               4.160664       8.470195
                         18       1    1py               4.160664       8.470195
                         18       1    1pz               4.160664       8.470195

                         19       1    1s                4.500495       2.202193

                         20       1    1fx3              4.904034      52.686550
                         20       1    1fx2y             4.904034     117.810708
                         20       1    1fx2z             4.904034     117.810708
                         20       1    1fxy2             4.904034     117.810708
                         20       1    1fxyz             4.904034     204.054131
                         20       1    1fxz2             4.904034     117.810708
                         20       1    1fy3              4.904034      52.686550
                         20       1    1fy2z             4.904034     117.810708
                         20       1    1fyz2             4.904034     117.810708
                         20       1    1fz3              4.904034      52.686550

                         21       1    1dx2              5.244543      29.915609
                         21       1    1dxy              5.244543      51.815354
                         21       1    1dxz              5.244543      51.815354
                         21       1    1dy2              5.244543      29.915609
                         21       1    1dyz              5.244543      51.815354
                         21       1    1dz2              5.244543      29.915609

                         22       1    1dx2             10.138089      94.805303
                         22       1    1dxy             10.138089     164.207602
                         22       1    1dxz             10.138089     164.207602
                         22       1    1dy2             10.138089      94.805303
                         22       1    1dyz             10.138089     164.207602
                         22       1    1dz2             10.138089      94.805303

       Atomic covalent radius [Angstrom]:                                  0.770

       Atomic van der Waals radius [Angstrom]:                             1.700

     The atoms of this atomic kind are PAW atoms (GAPW):
       Hard Gaussian function radius:                                      1.512
       Rho0 radius:                                                        1.512
       Maximum GTO radius used for PAW projector construction:            24.566

     GAPW Soft Basis Set                                  SVP-MOLOPT-GGA-ae_soft

       Number of orbital shell sets:                                           2
       Number of orbital shells:                                               6
       Number of primitive Cartesian functions:                                7
       Number of Cartesian basis functions:                                   15
       Number of spherical basis functions:                                   14
       Norm type:                                                              2

       Normalised Cartesian orbitals:

                        Set   Shell   Orbital            Exponent    Coefficient

                          1       1    2px               4.145546       1.425967
                                                         0.937529       0.673511
                                                         0.300899       0.144116
                                                         0.096935       0.005344
                          1       1    2py               4.145546       1.425967
                                                         0.937529       0.673511
                                                         0.300899       0.144116
                                                         0.096935       0.005344
                          1       1    2pz               4.145546       1.425967
                                                         0.937529       0.673511
                                                         0.300899       0.144116
                                                         0.096935       0.005344

                          1       2    3px               4.145546      -0.833488
                                                         0.937529      -0.414500
                                                         0.300899       0.082631
                                                         0.096935       0.066903
                          1       2    3py               4.145546      -0.833488
                                                         0.937529      -0.414500
                                                         0.300899       0.082631
                                                         0.096935       0.066903
                          1       2    3pz               4.145546      -0.833488
                                                         0.937529      -0.414500
                                                         0.300899       0.082631
                                                         0.096935       0.066903

                          1       3    3dx2              4.145546       0.718979
                                                         0.937529       0.830801
                                                         0.300899       0.105504
                                                         0.096935       0.001258
                          1       3    3dxy              4.145546       1.245309
                                                         0.937529       1.438990
                                                         0.300899       0.182739
                                                         0.096935       0.002179
                          1       3    3dxz              4.145546       1.245309
                                                         0.937529       1.438990
                                                         0.300899       0.182739
                                                         0.096935       0.002179
                          1       3    3dy2              4.145546       0.718979
                                                         0.937529       0.830801
                                                         0.300899       0.105504
                                                         0.096935       0.001258
                          1       3    3dyz              4.145546       1.245309
                                                         0.937529       1.438990
                                                         0.300899       0.182739
                                                         0.096935       0.002179
                          1       3    3dz2              4.145546       0.718979
                                                         0.937529       0.830801
                                                         0.300899       0.105504
                                                         0.096935       0.001258

                          2       1    1s                3.176528       0.666384
                                                         0.523772      -0.029268
                                                         0.161278       0.024253

                          2       2    2s                3.176528      -0.079506
                                                         0.523772       0.279468
                                                         0.161278       0.080328

                          2       3    3s                3.176528      -0.308205
                                                         0.523772      -0.382710
                                                         0.161278       0.225687

     AE Potential information for                                            ALL

       Description:                                       All-electron potential
                                          Krack, Parrinello, PCCP 2, 2105 (2000)

       Gaussian exponent of the core charge distribution:               4.109048
       Electronic configuration (s p d ...):                           4   2   0

  2. Atomic kind: H                                     Number of atoms:       5

     Orbital Basis Set                                         SVP-MOLOPT-GGA-ae

       Number of orbital shell sets:                                           1
       Number of orbital shells:                                               3
       Number of primitive Cartesian functions:                                4
       Number of Cartesian basis functions:                                    5
       Number of spherical basis functions:                                    5
       Norm type:                                                              2

       Normalised Cartesian orbitals:

                        Set   Shell   Orbital            Exponent    Coefficient

                          1       1    2s               12.248855       0.310040
                                                         1.446686       0.373852
                                                         0.374948       0.205449
                                                         0.111920       0.009149

                          1       2    3s               12.248855      -0.144753
                                                         1.446686      -0.188851
                                                         0.374948       0.007287
                                                         0.111920       0.143650

                          1       3    3px              12.248855      -0.764411
                                                         1.446686       0.896497
                                                         0.374948       0.280770
                                                         0.111920       0.007225
                          1       3    3py              12.248855      -0.764411
                                                         1.446686       0.896497
                                                         0.374948       0.280770
                                                         0.111920       0.007225
                          1       3    3pz              12.248855      -0.764411
                                                         1.446686       0.896497
                                                         0.374948       0.280770
                                                         0.111920       0.007225

     RI Auxiliary Basis Set                                    aug-cc-pV5Z-OPTRI

       Number of orbital shell sets:                                          17
       Number of orbital shells:                                              17
       Number of primitive Cartesian functions:                               17
       Number of Cartesian basis functions:                                  115
       Number of spherical basis functions:                                   81
       Norm type:                                                              2

       Normalised Cartesian orbitals:

                        Set   Shell   Orbital            Exponent    Coefficient

                          1       1    1s                0.306678       0.293712

                          2       1    1fx3              0.582788       0.436871
                          2       1    1fx2y             0.582788       0.976873
                          2       1    1fx2z             0.582788       0.976873
                          2       1    1fxy2             0.582788       0.976873
                          2       1    1fxyz             0.582788       1.691994
                          2       1    1fxz2             0.582788       0.976873
                          2       1    1fy3              0.582788       0.436871
                          2       1    1fy2z             0.582788       0.976873
                          2       1    1fyz2             0.582788       0.976873
                          2       1    1fz3              0.582788       0.436871

                          3       1    1dx2              0.740674       0.973323
                          3       1    1dxy              0.740674       1.685844
                          3       1    1dxz              0.740674       1.685844
                          3       1    1dy2              0.740674       0.973323
                          3       1    1dyz              0.740674       1.685844
                          3       1    1dz2              0.740674       0.973323

                          4       1    1s                0.854346       0.633338

                          5       1    1px               0.977704       1.385796
                          5       1    1py               0.977704       1.385796
                          5       1    1pz               0.977704       1.385796

                          6       1    1gx4              1.260673       2.104225
                          6       1    1gx3y             1.260673       5.567256
                          6       1    1gx3z             1.260673       5.567256
                          6       1    1gx2y2            1.260673       7.187297
                          6       1    1gx2yz            1.260673      12.448763
                          6       1    1gx2z2            1.260673       7.187297
                          6       1    1gxy3             1.260673       5.567256
                          6       1    1gxy2z            1.260673      12.448763
                          6       1    1gxyz2            1.260673      12.448763
                          6       1    1gxz3             1.260673       5.567256
                          6       1    1gy4              1.260673       2.104225
                          6       1    1gy3z             1.260673       5.567256
                          6       1    1gy2z2            1.260673       7.187297
                          6       1    1gyz3             1.260673       5.567256
                          6       1    1gz4              1.260673       2.104225

                          7       1    1fx3              1.313322       2.718252
                          7       1    1fx2y             1.313322       6.078196
                          7       1    1fx2z             1.313322       6.078196
                          7       1    1fxy2             1.313322       6.078196
                          7       1    1fxyz             1.313322      10.527744
                          7       1    1fxz2             1.313322       6.078196
                          7       1    1fy3              1.313322       2.718252
                          7       1    1fy2z             1.313322       6.078196
                          7       1    1fyz2             1.313322       6.078196
                          7       1    1fz3              1.313322       2.718252

                          8       1    1dx2              1.868623       4.915553
                          8       1    1dxy              1.868623       8.513988
                          8       1    1dxz              1.868623       8.513988
                          8       1    1dy2              1.868623       4.915553
                          8       1    1dyz              1.868623       8.513988
                          8       1    1dz2              1.868623       4.915553

                          9       1    1s                2.242991       1.306263

                         10       1    1hx5              2.510965      14.785170
                         10       1    1hx4y             2.510965      44.355509
                         10       1    1hx4z             2.510965      44.355509
                         10       1    1hx3y2            2.510965      67.754159
                         10       1    1hx3yz            2.510965     117.353645
                         10       1    1hx3z2            2.510965      67.754159
                         10       1    1hx2y3            2.510965      67.754159
                         10       1    1hx2y2z           2.510965     151.502904
                         10       1    1hx2yz2           2.510965     151.502904
                         10       1    1hx2z3            2.510965      67.754159
                         10       1    1hxy4             2.510965      44.355509
                         10       1    1hxy3z            2.510965     117.353645
                         10       1    1hxy2z2           2.510965     151.502904
                         10       1    1hxyz3            2.510965     117.353645
                         10       1    1hxz4             2.510965      44.355509
                         10       1    1hy5              2.510965      14.785170
                         10       1    1hy4z             2.510965      44.355509
                         10       1    1hy3z2            2.510965      67.754159
                         10       1    1hy2z3            2.510965      67.754159
                         10       1    1hyz4             2.510965      44.355509
                         10       1    1hz5              2.510965      14.785170

                         11       1    1px               2.624145       4.760744
                         11       1    1py               2.624145       4.760744
                         11       1    1pz               2.624145       4.760744

                         12       1    1gx4              3.525409      35.584558
                         12       1    1gx3y             3.525409      94.147891
                         12       1    1gx3z             3.525409      94.147891
                         12       1    1gx2y2            3.525409     121.544404
                         12       1    1gx2yz            3.525409     210.521084
                         12       1    1gx2z2            3.525409     121.544404
                         12       1    1gxy3             3.525409      94.147891
                         12       1    1gxy2z            3.525409     210.521084
                         12       1    1gxyz2            3.525409     210.521084
                         12       1    1gxz3             3.525409      94.147891
                         12       1    1gy4              3.525409      35.584558
                         12       1    1gy3z             3.525409      94.147891
                         12       1    1gy2z2            3.525409     121.544404
                         12       1    1gyz3             3.525409      94.147891
                         12       1    1gz4              3.525409      35.584558

                         13       1    1fx3              3.758818      28.961421
                         13       1    1fx2y             3.758818      64.759707
                         13       1    1fx2z             3.758818      64.759707
                         13       1    1fxy2             3.758818      64.759707
                         13       1    1fxyz             3.758818     112.167102
                         13       1    1fxz2             3.758818      64.759707
                         13       1    1fy3              3.758818      28.961421
                         13       1    1fy2z             3.758818      64.759707
                         13       1    1fyz2             3.758818      64.759707
                         13       1    1fz3              3.758818      28.961421

                         14       1    1dx2              4.580832      23.608158
                         14       1    1dxy              4.580832      40.890528
                         14       1    1dxz              4.580832      40.890528
                         14       1    1dy2              4.580832      23.608158
                         14       1    1dyz              4.580832      40.890528
                         14       1    1dz2              4.580832      23.608158

                         15       1    1px               6.794656      15.636856
                         15       1    1py               6.794656      15.636856
                         15       1    1pz               6.794656      15.636856

                         16       1    1s                7.257089       3.151243

                         17       1    1px              22.632735      70.365761
                         17       1    1py              22.632735      70.365761
                         17       1    1pz              22.632735      70.365761

       Atomic covalent radius [Angstrom]:                                  0.320

       Atomic van der Waals radius [Angstrom]:                             1.090

     The atoms of this atomic kind are PAW atoms (GAPW):
       Hard Gaussian function radius:                                      1.200
       Rho0 radius:                                                        1.200
       Maximum GTO radius used for PAW projector construction:            24.566

     GAPW Soft Basis Set                                  SVP-MOLOPT-GGA-ae_soft

       Number of orbital shell sets:                                           1
       Number of orbital shells:                                               3
       Number of primitive Cartesian functions:                                3
       Number of Cartesian basis functions:                                    5
       Number of spherical basis functions:                                    5
       Norm type:                                                              2

       Normalised Cartesian orbitals:

                        Set   Shell   Orbital            Exponent    Coefficient

                          1       1    2s                1.446686       0.373852
                                                         0.374948       0.205449
                                                         0.111920       0.009149

                          1       2    3s                1.446686      -0.188851
                                                         0.374948       0.007287
                                                         0.111920       0.143650

                          1       3    3px               1.446686       0.896497
                                                         0.374948       0.280770
                                                         0.111920       0.007225
                          1       3    3py               1.446686       0.896497
                                                         0.374948       0.280770
                                                         0.111920       0.007225
                          1       3    3pz               1.446686       0.896497
                                                         0.374948       0.280770
                                                         0.111920       0.007225

     AE Potential information for                                            ALL

       Description:                                       All-electron potential
                                          Krack, Parrinello, PCCP 2, 2105 (2000)

       Gaussian exponent of the core charge distribution:              12.500000
       Electronic configuration (s p d ...):                           1   0   0

  3. Atomic kind: N                                     Number of atoms:       1

     Orbital Basis Set                                         SVP-MOLOPT-GGA-ae

       Number of orbital shell sets:                                           2
       Number of orbital shells:                                               6
       Number of primitive Cartesian functions:                               11
       Number of Cartesian basis functions:                                   15
       Number of spherical basis functions:                                   14
       Norm type:                                                              2

       Normalised Cartesian orbitals:

                        Set   Shell   Orbital            Exponent    Coefficient

                          1       1    2px              12.268174      -2.349358
                                                         2.325354      -1.380142
                                                         0.634073      -0.492962
                                                         0.166384      -0.031930
                          1       1    2py              12.268174      -2.349358
                                                         2.325354      -1.380142
                                                         0.634073      -0.492962
                                                         0.166384      -0.031930
                          1       1    2pz              12.268174      -2.349358
                                                         2.325354      -1.380142
                                                         0.634073      -0.492962
                                                         0.166384      -0.031930

                          1       2    3px              12.268174      -0.998521
                                                         2.325354      -0.809234
                                                         0.634073      -0.220766
                                                         0.166384       0.169694
                          1       2    3py              12.268174      -0.998521
                                                         2.325354      -0.809234
                                                         0.634073      -0.220766
                                                         0.166384       0.169694
                          1       2    3pz              12.268174      -0.998521
                                                         2.325354      -0.809234
                                                         0.634073      -0.220766
                                                         0.166384       0.169694

                          1       3    3dx2             12.268174      -0.426175
                                                         2.325354       1.255926
                                                         0.634073       0.555487
                                                         0.166384       0.019402
                          1       3    3dxy             12.268174      -0.738157
                                                         2.325354       2.175327
                                                         0.634073       0.962132
                                                         0.166384       0.033606
                          1       3    3dxz             12.268174      -0.738157
                                                         2.325354       2.175327
                                                         0.634073       0.962132
                                                         0.166384       0.033606
                          1       3    3dy2             12.268174      -0.426175
                                                         2.325354       1.255926
                                                         0.634073       0.555487
                                                         0.166384       0.019402
                          1       3    3dyz             12.268174      -0.738157
                                                         2.325354       2.175327
                                                         0.634073       0.962132
                                                         0.166384       0.033606
                          1       3    3dz2             12.268174      -0.426175
                                                         2.325354       1.255926
                                                         0.634073       0.555487
                                                         0.166384       0.019402

                          2       1    1s             1713.054433      -1.166486
                                                       257.997554      -1.897300
                                                        57.692026      -2.958222
                                                        14.651380      -2.749170
                                                         4.403487      -0.858326
                                                         0.666629       0.012902
                                                         0.191012      -0.002582

                          2       2    2s             1713.054433       0.520658
                                                       257.997554      -0.458166
                                                        57.692026       0.772862
                                                        14.651380       0.000424
                                                         4.403487       0.009155
                                                         0.666629       0.351708
                                                         0.191012       0.079194

                          2       3    3s             1713.054433      -0.270364
                                                       257.997554       0.741400
                                                        57.692026      -1.262420
                                                        14.651380      -0.095292
                                                         4.403487      -0.072962
                                                         0.666629      -0.436823
                                                         0.191012       0.300064

     RI Auxiliary Basis Set                                    aug-cc-pV5Z-OPTRI

       Number of orbital shell sets:                                          22
       Number of orbital shells:                                              22
       Number of primitive Cartesian functions:                               22
       Number of Cartesian basis functions:                                  188
       Number of spherical basis functions:                                  122
       Norm type:                                                              2

       Normalised Cartesian orbitals:

                        Set   Shell   Orbital            Exponent    Coefficient

                          1       1    1gx4              0.134828       0.004501
                          1       1    1gx3y             0.134828       0.011909
                          1       1    1gx3z             0.134828       0.011909
                          1       1    1gx2y2            0.134828       0.015375
                          1       1    1gx2yz            0.134828       0.026630
                          1       1    1gx2z2            0.134828       0.015375
                          1       1    1gxy3             0.134828       0.011909
                          1       1    1gxy2z            0.134828       0.026630
                          1       1    1gxyz2            0.134828       0.026630
                          1       1    1gxz3             0.134828       0.011909
                          1       1    1gy4              0.134828       0.004501
                          1       1    1gy3z             0.134828       0.011909
                          1       1    1gy2z2            0.134828       0.015375
                          1       1    1gyz3             0.134828       0.011909
                          1       1    1gz4              0.134828       0.004501

                          2       1    1px               0.159639       0.143835
                          2       1    1py               0.159639       0.143835
                          2       1    1pz               0.159639       0.143835

                          3       1    1s                0.209162       0.220431

                          4       1    1px               0.436875       0.506275
                          4       1    1py               0.436875       0.506275
                          4       1    1pz               0.436875       0.506275

                          5       1    1hx5              0.527568       0.092843
                          5       1    1hx4y             0.527568       0.278529
                          5       1    1hx4z             0.527568       0.278529
                          5       1    1hx3y2            0.527568       0.425460
                          5       1    1hx3yz            0.527568       0.736918
                          5       1    1hx3z2            0.527568       0.425460
                          5       1    1hx2y3            0.527568       0.425460
                          5       1    1hx2y2z           0.527568       0.951358
                          5       1    1hx2yz2           0.527568       0.951358
                          5       1    1hx2z3            0.527568       0.425460
                          5       1    1hxy4             0.527568       0.278529
                          5       1    1hxy3z            0.527568       0.736918
                          5       1    1hxy2z2           0.527568       0.951358
                          5       1    1hxyz3            0.527568       0.736918
                          5       1    1hxz4             0.527568       0.278529
                          5       1    1hy5              0.527568       0.092843
                          5       1    1hy4z             0.527568       0.278529
                          5       1    1hy3z2            0.527568       0.425460
                          5       1    1hy2z3            0.527568       0.425460
                          5       1    1hyz4             0.527568       0.278529
                          5       1    1hz5              0.527568       0.092843

                          6       1    1s                0.530900       0.443271

                          7       1    1fx3              0.738473       0.744230
                          7       1    1fx2y             0.738473       1.664150
                          7       1    1fx2z             0.738473       1.664150
                          7       1    1fxy2             0.738473       1.664150
                          7       1    1fxyz             0.738473       2.882392
                          7       1    1fxz2             0.738473       1.664150
                          7       1    1fy3              0.738473       0.744230
                          7       1    1fy2z             0.738473       1.664150
                          7       1    1fyz2             0.738473       1.664150
                          7       1    1fz3              0.738473       0.744230

                          8       1    1px               1.004026       1.432588
                          8       1    1py               1.004026       1.432588
                          8       1    1pz               1.004026       1.432588

                          9       1    1dx2              1.119820       2.006406
                          9       1    1dxy              1.119820       3.475197
                          9       1    1dxz              1.119820       3.475197
                          9       1    1dy2              1.119820       2.006406
                          9       1    1dyz              1.119820       3.475197
                          9       1    1dz2              1.119820       2.006406

                         10       1    1s                1.393963       0.914321

                         11       1    1gx4              1.404119       2.830064
                         11       1    1gx3y             1.404119       7.487644
                         11       1    1gx3z             1.404119       7.487644
                         11       1    1gx2y2            1.404119       9.666507
                         11       1    1gx2yz            1.404119      16.742882
                         11       1    1gx2z2            1.404119       9.666507
                         11       1    1gxy3             1.404119       7.487644
                         11       1    1gxy2z            1.404119      16.742882
                         11       1    1gxyz2            1.404119      16.742882
                         11       1    1gxz3             1.404119       7.487644
                         11       1    1gy4              1.404119       2.830064
                         11       1    1gy3z             1.404119       7.487644
                         11       1    1gy2z2            1.404119       9.666507
                         11       1    1gyz3             1.404119       7.487644
                         11       1    1gz4              1.404119       2.830064

                         12       1    1fx3              1.802390       5.541332
                         12       1    1fx2y             1.802390      12.390795
                         12       1    1fx2z             1.802390      12.390795
                         12       1    1fxy2             1.802390      12.390795
                         12       1    1fxyz             1.802390      21.461487
                         12       1    1fxz2             1.802390      12.390795
                         12       1    1fy3              1.802390       5.541332
                         12       1    1fy2z             1.802390      12.390795
                         12       1    1fyz2             1.802390      12.390795
                         12       1    1fz3              1.802390       5.541332

                         13       1    1ix6              1.941471       5.384789
                         13       1    1ix5y             1.941471      17.859326
                         13       1    1ix5z             1.941471      17.859326
                         13       1    1ix4y2            1.941471      30.933260
                         13       1    1ix4yz            1.941471      53.577978
                         13       1    1ix4z2            1.941471      30.933260
                         13       1    1ix3y3            1.941471      36.600727
                         13       1    1ix3y2z           1.941471      81.841714
                         13       1    1ix3yz2           1.941471      81.841714
                         13       1    1ix3z3            1.941471      36.600727
                         13       1    1ix2y4            1.941471      30.933260
                         13       1    1ix2y3z           1.941471      81.841714
                         13       1    1ix2y2z2          1.941471     105.657198
                         13       1    1ix2yz3           1.941471      81.841714
                         13       1    1ix2z4            1.941471      30.933260
                         13       1    1ixy5             1.941471      17.859326
                         13       1    1ixy4z            1.941471      53.577978
                         13       1    1ixy3z2           1.941471      81.841714
                         13       1    1ixy2z3           1.941471      81.841714
                         13       1    1ixyz4            1.941471      53.577978
                         13       1    1ixz5             1.941471      17.859326
                         13       1    1iy6              1.941471       5.384789
                         13       1    1iy5z             1.941471      17.859326
                         13       1    1iy4z2            1.941471      30.933260
                         13       1    1iy3z3            1.941471      36.600727
                         13       1    1iy2z4            1.941471      30.933260
                         13       1    1iyz5             1.941471      17.859326
                         13       1    1iz6              1.941471       5.384789

                         14       1    1px               2.643998       4.805809
                         14       1    1py               2.643998       4.805809
                         14       1    1pz               2.643998       4.805809

                         15       1    1dx2              3.091394      11.862592
                         15       1    1dxy              3.091394      20.546612
                         15       1    1dxz              3.091394      20.546612
                         15       1    1dy2              3.091394      11.862592
                         15       1    1dyz              3.091394      20.546612
                         15       1    1dz2              3.091394      11.862592

                         16       1    1hx5              3.455251      41.725627
                         16       1    1hx4y             3.455251     125.176881
                         16       1    1hx4z             3.455251     125.176881
                         16       1    1hx3y2            3.455251     191.210844
                         16       1    1hx3yz            3.455251     331.186896
                         16       1    1hx3z2            3.455251     191.210844
                         16       1    1hx2y3            3.455251     191.210844
                         16       1    1hx2y2z           3.455251     427.560445
                         16       1    1hx2yz2           3.455251     427.560445
                         16       1    1hx2z3            3.455251     191.210844
                         16       1    1hxy4             3.455251     125.176881
                         16       1    1hxy3z            3.455251     331.186896
                         16       1    1hxy2z2           3.455251     427.560445
                         16       1    1hxyz3            3.455251     331.186896
                         16       1    1hxz4             3.455251     125.176881
                         16       1    1hy5              3.455251      41.725627
                         16       1    1hy4z             3.455251     125.176881
                         16       1    1hy3z2            3.455251     191.210844
                         16       1    1hy2z3            3.455251     191.210844
                         16       1    1hyz4             3.455251     125.176881
                         16       1    1hz5              3.455251      41.725627

                         17       1    1gx4              5.019491      94.026343
                         17       1    1gx3y             5.019491     248.770320
                         17       1    1gx3z             5.019491     248.770320
                         17       1    1gx2y2            5.019491     321.161102
                         17       1    1gx2yz            5.019491     556.267347
                         17       1    1gx2z2            5.019491     321.161102
                         17       1    1gxy3             5.019491     248.770320
                         17       1    1gxy2z            5.019491     556.267347
                         17       1    1gxyz2            5.019491     556.267347
                         17       1    1gxz3             5.019491     248.770320
                         17       1    1gy4              5.019491      94.026343
                         17       1    1gy3z             5.019491     248.770320
                         17       1    1gy2z2            5.019491     321.161102
                         17       1    1gyz3             5.019491     248.770320
                         17       1    1gz4              5.019491      94.026343

                         18       1    1s                6.323282       2.841954

                         19       1    1px               6.613928      15.118699
                         19       1    1py               6.613928      15.118699
                         19       1    1pz               6.613928      15.118699

                         20       1    1dx2              6.959399      49.080615
                         20       1    1dxy              6.959399      85.010119
                         20       1    1dxz              6.959399      85.010119
                         20       1    1dy2              6.959399      49.080615
                         20       1    1dyz              6.959399      85.010119
[...]
 transfer_rs2pw_30                   80  9.0    0.759    0.792    1.756    1.781
 rpa_num_int_RPA_matrix_operati     100  7.0    0.001    0.003    1.616    1.617
 xc_functional_eval                 711 10.9    0.001    0.002    1.203    1.611
 pbe_lda_eval                       711 11.9    1.202    1.609    1.202    1.609
 mp_sendrecv_dv                   34400 10.0    1.350    1.399    1.350    1.399
 mp2_ri_gpw_compute_in                1  5.0    0.000    0.001    1.370    1.370
 start_bse_calculation                1  7.0    0.000    0.000    1.330    1.330
 mp2_ri_gpw_compute_in_loop           1  6.0    0.000    0.000    1.321    1.321
 pw_scatter_p                       874 12.1    1.141    1.299    1.141    1.299
 parser_read_line                331728  4.0    0.111    0.123    1.255    1.282
 contract_B_L                         4  7.0    0.002    0.003    1.162    1.275
 powell_optimize                 463434 11.0    1.142    1.204    1.142    1.204
 parser_read_line_low               356  5.0    0.096    0.501    1.143    1.171
 cp_fm_cholesky_invert              101  8.0    1.071    1.150    1.071    1.150
 broadcast_input_information        356  6.0    0.236    0.257    1.048    1.114
 pw_gather_p                        797 11.8    0.879    1.060    0.879    1.060
 cp2k_distribution_to_z_slices       80  9.0    0.369    0.403    0.855    1.046
 calculate_rho_atom_coeff            80  6.0    0.014    0.027    1.035    1.035
 transfer_pw2rs_90                   80 12.0    0.203    0.234    0.903    1.027
 mp_sum_dv                        16476 11.5    0.922    1.024    0.922    1.024
 rs_grid_zero                       402 11.2    0.951    0.996    0.951    0.996
 fft_wrap_pw1pw2_90                 160 10.5    0.024    0.046    0.846    0.951
 rs_gather_matrices                  80 10.0    0.001    0.003    0.840    0.925
 transfer_rs2pw_90                   80  9.0    0.194    0.220    0.801    0.898
 calc_pair_dist_radii                 1 10.0    0.315    0.326    0.845    0.874
 dbt_total                            8  8.0    0.000    0.000    0.874    0.874
 dbt_contract                         4  9.0    0.001    0.001    0.555    0.860
 calc_mat_Q                         100  8.0    0.000    0.000    0.827    0.853
 grid_integrate_task_list            80 10.0    0.062    0.848    0.062    0.848
 pw_derive                          714 11.3    0.784    0.844    0.784    0.844
 contract_S_to_Q                    100  9.0    0.001    0.001    0.816    0.843
 calculate_rho_atom                 320  9.0    0.238    0.807    0.238    0.807
 mp_isendrecv_dv                  68800 12.0    0.445    0.781    0.445    0.781
 mp_cart_create                     580  9.9    0.612    0.742    0.613    0.743
 dbt_pgrid_create_expert             84 10.8    0.000    0.000    0.577    0.705
 qs_energies_init_hamiltonians        1  3.0    0.000    0.000    0.696    0.696
 build_core_hamiltonian_matrix        1  4.0    0.000    0.000    0.683    0.684
 overlap_condnum                      1  5.0    0.000    0.000    0.681    0.682
 compute_Erpa_by_freq_int           100  8.0    0.002    0.002    0.669    0.670
 pw_copy                           1195 10.6    0.600    0.656    0.600    0.656
 create_hermitian_form_of_ABBA        1  8.0    0.000    0.000    0.630    0.631
 cp_fm_power                          2  7.5    0.010    0.013    0.607    0.609
 compute_vec_Sigma_x_minus_vxc_       1  4.0    0.000    0.000    0.605    0.605
 pw_poisson_rebuild                  80  9.0    0.000    0.000    0.580    0.603
 ps_wavelet_create                    1 10.0    0.000    0.000    0.580    0.603
 RS_z_slice_distribution              1 11.0    0.499    0.560    0.580    0.603
 cp_fm_cholesky_decompose           102  9.0    0.591    0.593    0.591    0.593
 diagonalize_C                        1  8.0    0.000    0.000    0.574    0.575
 mp_bcast_i_src                    1424  7.0    0.318    0.574    0.318    0.574
 calculate_dm_sparse                 79  6.0    0.001    0.001    0.563    0.574
 cp_dbcsr_plus_fm_fm_t               79  7.0    0.001    0.001    0.562    0.573
 arnoldi_conjugate_gradient           7  6.0    0.012    0.015    0.567    0.567
 transfer_pw2rs_10                   80 12.0    0.192    0.218    0.533    0.565
 transfer_rs2pw_10                   80  9.0    0.195    0.209    0.548    0.562
 mp_bcast_am_src                    356  7.0    0.403    0.494    0.441    0.560
 pw_copy_to_array                   797 11.8    0.344    0.555    0.344    0.555
 dbcsr_complete_redistribute        276  8.4    0.013    0.016    0.530    0.537
 dbt_copy                            12 10.2    0.000    0.000    0.059    0.508
 dbt_reshape                          8 11.8    0.008    0.011    0.050    0.499
 dbt_communicate_buffer               8 12.8    0.002    0.002    0.039    0.487
 mp_waitall_2                        48 15.7    0.038    0.485    0.038    0.485
 pw_poisson_set                      81  8.9    0.002    0.003    0.476    0.484
 mp2_main_alloc_hfx                   1  4.0    0.177    0.406    0.177    0.406
 mp_sum_i                            21  9.7    0.230    0.405    0.230    0.405
 restraint_control                    1  2.0    0.000    0.000    0.229    0.404
 copy_dbcsr_to_fm                   114  6.6    0.002    0.002    0.385    0.392
 mp_alltoall_z11v                   320 13.5    0.367    0.380    0.367    0.380
 Vh_1c_gg_integrals                  80  8.0    0.007    0.131    0.187    0.373
 mp2_eri_3c_integrate                 1  7.0    0.001    0.002    0.120    0.364
 integrate_set_3c                   788  8.0    0.108    0.334    0.119    0.362
 pw_integral_ab_c1d_c1d_gs           80  9.0    0.260    0.264    0.333    0.362
 mp_irecv_dm3                      2892 11.5    0.211    0.361    0.211    0.361
 fft_wrap_pw1pw2_30                 160 10.5    0.005    0.005    0.345    0.360
 dbt_remap                            8 10.0    0.002    0.002    0.356    0.359
 mp_max_i                           616  3.0    0.147    0.353    0.147    0.353
 dbcsr_sym_matrix_vector_mult      1743  7.0    0.027    0.034    0.283    0.352
 copy_fm_to_dbcsr                   162  8.1    0.001    0.001    0.335    0.343
 mp_isend_dm3                      2892 11.5    0.180    0.341    0.180    0.341
 init_scf_run                         1  3.0    0.000    0.000    0.329    0.330
 pw_copy_from_array                 874 12.1    0.260    0.328    0.260    0.328
 dbt_nd_mp_comm                       8 11.0    0.000    0.000    0.312    0.327
 pw_axpy                            795  9.3    0.294    0.324    0.294    0.324
 scf_env_initial_rho_setup            1  4.0    0.000    0.000    0.302    0.302
 integrate_four_center_main          80 10.0    0.015    0.056    0.224    0.290
 mp_alltoall_i11v                   944  9.3    0.280    0.283    0.280    0.283
 integrate_four_center_bin         7590 11.0    0.209    0.279    0.209    0.279
 dbcsr_multiply_generic             132  8.1    0.007    0.007    0.266    0.275
 dbcsr_desymmetrize_deep            116  7.5    0.003    0.004    0.244    0.250
 mp_isend_dv                      24888 11.8    0.173    0.236    0.173    0.236
 yz_to_xz                           160 14.0    0.014    0.016    0.216    0.228
 offload_free_buffer                 88  8.5    0.187    0.226    0.187    0.226
 cp_fm_to_fm_submat_general         112 10.1    0.136    0.223    0.136    0.223
 update_ks_atom                      80  8.0    0.011    0.019    0.153    0.220
 mp_bcast_dm                       1920  9.0    0.142    0.206    0.142    0.206
 fft_wrap_pw1pw2_10                 160 10.5    0.002    0.002    0.195    0.198
 qs_init_subsys                       1  2.0    0.004    0.004    0.187    0.187
 vxc_of_r_new                       632  9.0    0.000    0.027    0.003    0.180
 xz_to_yz                           160 11.0    0.010    0.011    0.176    0.178
 qs_env_setup                         1  3.0    0.000    0.000    0.176    0.178
 qs_env_rebuild_pw_env                2  3.5    0.000    0.000    0.175    0.177
 dbt_tas_multiply                     8 11.5    0.000    0.000    0.176    0.177
 pw_env_rebuild                       1  5.0    0.001    0.001    0.175    0.176
 pw_zero                            476 10.3    0.154    0.174    0.154    0.174
 dbt_tas_total                        8 12.5    0.002    0.005    0.173    0.173
 integrate_four_center_getP          80 10.0    0.026    0.027    0.159    0.168
 cp_fm_redistribute_start            85  8.0    0.117    0.119    0.153    0.164
 cp_fm_uplo_to_full                 104  8.0    0.061    0.162    0.061    0.162
 dbcsr_add_d                       2672  7.1    0.003    0.003    0.023    0.162
 dbcsr_add_anytype                 2672  8.1    0.003    0.021    0.021    0.160
 pw_grid_setup                        4  6.0    0.000    0.000    0.157    0.159
 pw_grid_setup_internal               4  7.0    0.003    0.004    0.157    0.159
 integrate_four_center_dist_KS       80 10.0    0.026    0.028    0.157    0.157
 hybrid_alltoall_any                380 11.0    0.005    0.006    0.149    0.156
 dbcsr_rep_row_to_rep_col_vec      1743  8.0    0.008    0.011    0.059    0.155
 dbcsr_col_vec_to_rep_row          1743  8.0    0.012    0.016    0.088    0.142
 mp_rank_compare                   1671 12.9    0.137    0.141    0.137    0.141
 Q_trace_and_add_unit_matrix        100  8.0    0.001    0.001    0.120    0.136
 mp_sum_l                          1032  6.4    0.106    0.134    0.106    0.134
 multiply_cannon                    132  9.1    0.014    0.015    0.121    0.129
 dbcsr_finalize                    4412 10.8    0.010    0.040    0.033    0.118
 integrate_four_center_load          80 10.0    0.000    0.001    0.086    0.112
 hfx_load_balance                     1 11.0    0.000    0.000    0.086    0.111
 make_m2s                           264  9.1    0.006    0.006    0.104    0.109
 mp_bcast_iv_src                    356  7.0    0.053    0.107    0.053    0.107
 dbt_tas_dbm                          8 13.5    0.000    0.000    0.097    0.097
 multiply_cannon_loop               132 10.1    0.019    0.021    0.088    0.095
 dbm_multiply                         8 15.5    0.088    0.094    0.088    0.094
 hfx_load_balance_range               1 12.0    0.000    0.000    0.067    0.092
 mp_bcast_iv                        431  7.0    0.040    0.087    0.040    0.087
 scale_and_distribute               160 10.0    0.079    0.086    0.079    0.086
 mp_bcast_dv                       1828  9.0    0.035    0.083    0.035    0.083
 dbt_tas_estimate_result_nze          4 12.0    0.001    0.001    0.073    0.073
 rs_scatter_matrices                 80  7.0    0.001    0.002    0.072    0.073
 postprocess_bse                      1  9.0    0.000    0.000    0.072    0.073
 pw_scale                           317  9.5    0.053    0.072    0.053    0.072
 pw_grid_sort                         4  8.0    0.043    0.046    0.067    0.071
 mp_alltoall_i22                    392  9.2    0.049    0.063    0.049    0.063
 dbcsr_copy                        7754  7.7    0.027    0.036    0.045    0.061
 mult_B_with_W                        1  8.0    0.000    0.000    0.060    0.061
 mixing_init                          1  5.0    0.041    0.060    0.060    0.061
 dbt_tas_mm_1N                        4 14.5    0.000    0.000    0.051    0.058
 make_images                        264 10.1    0.013    0.014    0.055    0.058
 dbcsr_merge_all                   3476 11.5    0.013    0.046    0.017    0.056
 cp_fm_symm                          80  7.0    0.051    0.056    0.051    0.056
 dbcsr_iterator_start             23335  8.9    0.029    0.044    0.035    0.053
 scf_post_calculation_gpw             1  3.0    0.000    0.000    0.051    0.051
 write_available_results              1  4.0    0.000    0.000    0.051    0.051
 write_mo_free_results                1  5.0    0.003    0.004    0.051    0.051
 get_2c_integrals                     1  6.0    0.000    0.000    0.046    0.048
 mp_comm_split_direct                48 14.5    0.033    0.047    0.033    0.047
 dbcsr_create_new                 10569  9.1    0.030    0.034    0.037    0.045
 calculate_rho0_atom                320  9.0    0.042    0.044    0.042    0.044
 cube_transpose_2                   160 11.0    0.003    0.004    0.034    0.042
 dbt_distribution_new_expert         76 10.1    0.001    0.001    0.041    0.042
 mp_sum_im                        10902 13.0    0.035    0.039    0.035    0.039
 get_multipoles_mo                    1 10.0    0.000    0.000    0.038    0.039
 dbt_tas_mm_2                         4 14.5    0.000    0.000    0.039    0.039
 dbt_tas_distribution_new            97 11.9    0.025    0.026    0.038    0.038
 mp_maxloc_dv                      1529  1.0    0.035    0.038    0.035    0.038
 cube_transpose_1                   160 14.0    0.003    0.003    0.029    0.034
 dbcsr_iterator_stop              23335  8.9    0.021    0.028    0.026    0.034
 create_A                             1  8.0    0.001    0.001    0.033    0.033
 mp_irecv_dv                      24720 11.8    0.023    0.032    0.023    0.032
 create_fast_row_vec_access        3486  8.0    0.014    0.019    0.022    0.030
 self_consistency_check              79  5.0    0.000    0.000    0.025    0.030
 create_B                             1  8.0    0.000    0.000    0.028    0.030
 dbcsr_crop_matrix                  395 10.0    0.003    0.003    0.028    0.030
 cp_sm_mix                           79  6.0    0.000    0.001    0.025    0.030
 create_fast_col_vec_access        3486  8.0    0.014    0.018    0.022    0.029
 mp_max_d                            81  6.9    0.024    0.029    0.024    0.029
 abc_contract                       788  9.0    0.010    0.028    0.010    0.028
 print_transition_amplitudes          1 10.0    0.000    0.000    0.028    0.028
 print_transition_amplitudes_co      50 11.0    0.000    0.000    0.028    0.028
 filter_eigvec_contrib               50 12.0    0.016    0.016    0.028    0.028
 sort_shells                          4  9.0    0.024    0.028    0.024    0.028
 mp_cart_sub                        234  8.6    0.026    0.027    0.026    0.027
 pw_grid_distribute                   4  8.0    0.010    0.011    0.018    0.027
 multiply_cannon_metrocomm3        3072 11.1    0.005    0.005    0.018    0.027
 create_integ_mat                     4  6.0    0.001    0.001    0.024    0.025
 hirshfeld_integration                1  6.0    0.001    0.004    0.025    0.025
 mp2_main_free_hfx                    1  4.0    0.010    0.024    0.010    0.024
 cp_dbcsr_sm_fm_multiply              3 11.0    0.000    0.000    0.024    0.024
 mp_comm_split                       85  9.0    0.021    0.023    0.021    0.023
 make_images_sizes                  264 11.1    0.000    0.000    0.021    0.023
 mp_alltoall_i44                    264 12.1    0.021    0.023    0.021    0.023
 array2fm                             4  7.0    0.000    0.000    0.018    0.023
 dbcsr_copy_submatrix               395 11.0    0.003    0.004    0.022    0.023
 mp_min_d                             1  6.0    0.019    0.023    0.019    0.023
 calculate_hirshfeld_normalizat       1  6.0    0.001    0.004    0.021    0.022
 dbt_split_blocks_generic            20  8.8    0.003    0.004    0.022    0.022
 mp_cart_rank                     74052  9.7    0.020    0.022    0.020    0.022
 dbt_create_new                      40  9.5    0.001    0.001    0.021    0.022
 compute_2c_integrals                 1  7.0    0.001    0.001    0.019    0.021
 xc_pw_smooth                        79 10.0    0.000    0.000    0.017    0.020
 dbcsr_work_create                 4108 10.6    0.004    0.013    0.006    0.020
 cp_fm_syrk                           3  7.0    0.019    0.020    0.019    0.020
 dbt_tas_create_split                44 13.2    0.000    0.000    0.018    0.018
 dbcsr_work_destroy_all            4108 11.6    0.004    0.014    0.006    0.018
 dbt_tas_create_split_rows_or_c      44 14.2    0.000    0.000    0.018    0.018
 mp_sum_iv                          341  9.6    0.014    0.018    0.014    0.018
 mp_bcast_av                        765  1.0    0.006    0.009    0.014    0.018
 pw_grid_assign                       4  8.0    0.014    0.018    0.018    0.018
 multiply_cannon_metrocomm4        2856 11.1    0.008    0.009    0.016    0.018
 dbcsr_scale_anytype               2673  9.1    0.005    0.007    0.013    0.017
 pw_grid_remap                        4  8.0    0.003    0.003    0.014    0.017
 multiply_cannon_metrocomm1        3072 11.1    0.003    0.004    0.011    0.016
 compute_2c_integrals_loop_lm         1  8.0    0.000    0.000    0.006    0.016
 multiply_cannon_metrocomm2        2772 11.1    0.008    0.009    0.015    0.016
 mp2_eri_2c_integrate                 1  9.0    0.001    0.001    0.006    0.016
 dbcsr_data_release               53023 10.3    0.010    0.016    0.010    0.016
 fm_general_add_bse                   5 10.2    0.000    0.000    0.012    0.015
 integrate_set_2c                   956 10.0    0.005    0.014    0.006    0.015
 dbcsr_sym_matrix_vector_mult_l    1743  8.0    0.007    0.008    0.012    0.015
 dbt_tas_replicate                    8 13.5    0.006    0.007    0.014    0.015
 make_images_data                   264 11.1    0.003    0.004    0.009    0.014
 mp_sum_im3                           4  9.0    0.011    0.014    0.011    0.014
 hfx_create                           1  2.0    0.013    0.014    0.013    0.014
 mp_allgather_i34                   132 10.1    0.011    0.014    0.011    0.014
 cholesky_decomp                      1  7.0    0.000    0.000    0.012    0.013
 array2fm_info                        4  8.0    0.009    0.013    0.009    0.013
 dbt_tas_reshape                      8 14.0    0.000    0.000    0.011    0.013
 dbcsr_destroy                     7007  8.7    0.008    0.009    0.011    0.012
 reshape_mm_small                     8 13.5    0.002    0.002    0.012    0.012
 dbcsr_data_new                   26770 10.8    0.007    0.012    0.007    0.012
 write_mo_set_to_restart             79  5.0    0.001    0.004    0.010    0.012
 mp_alltoall_i                       39 13.9    0.010    0.012    0.010    0.012
 ao_to_mo_and_store_B_mult_gw_1       6  7.0    0.000    0.000    0.008    0.012
 compute_max_radius                   1  6.0    0.012    0.012    0.012    0.012
 dbcsr_set                         7518  8.5    0.007    0.008    0.009    0.011
 dbcsr_make_images_dense            160 10.0    0.003    0.003    0.008    0.011
 convert_to_new_pgrid                24 13.5    0.005    0.005    0.011    0.011
 hfx_load_balance_redist              1 12.0    0.008    0.009    0.010    0.011
 multiply_cannon_multrec           3072 11.1    0.007    0.010    0.008    0.011
 qs_env_update_s_mstruct              1  4.0    0.000    0.000    0.010    0.011
 calc_fm_mat_S_rpa                  100  9.0    0.010    0.011    0.010    0.011
 qs_create_task_list                  1  5.0    0.000    0.000    0.010    0.011
 -------------------------------------------------------------------------------

 The number of warnings for this run is : 1
 
 -------------------------------------------------------------------------------
  **** **** ******  **  PROGRAM ENDED AT                 2025-03-29 10:46:27.472
 ***** ** ***  *** **   PROGRAM RAN ON                              i04r05c05s12
 **    ****   ******    PROGRAM RAN BY                                   di38fab
 ***** **    ** ** **   PROGRAM PROCESS ID                               2259616
  **** **  *******  **  PROGRAM STOPPED IN /hppfs/scratch/04/di38fab/07_MOL_non_
                                           aug/05_MOL_non_aug/05_MOL/aUKBqsEOTmq
                                           69kFe5R_nOg/5k_set_final_qzvp/BIRYIK1
                                           0/SZV/GW+BSE
