SIRIUS 7.5.2, git hash: https://api.github.com/repos/electronic-structure/SIRIUS/git/ref/tags/v7.5.2
 DBCSR| CPU Multiplication driver                                           XSMM (U)
 DBCSR| Multrec recursion limit                                              512 (U)
 DBCSR| Multiplication stack size                                           1000 (D)
 DBCSR| Maximum elements for images                                    UNLIMITED (U)
 DBCSR| Multiplicative factor virtual images                                   1 (U)
 DBCSR| Use multiplication densification                                       T (D)
 DBCSR| Multiplication size stacks                                             3 (U)
 DBCSR| Use memory pool for CPU allocation                                     F (U)
 DBCSR| Number of 3D layers                                               SINGLE (U)
 DBCSR| Use MPI memory allocation                                              F (U)
 DBCSR| Use RMA algorithm                                                      F (U)
 DBCSR| Use Communication thread                                               T (U)
 DBCSR| Communication thread load                                             75 (D)
 DBCSR| MPI: My process id                                                     0
 DBCSR| MPI: Number of processes                                             192
 DBCSR| OMP: Current number of threads                                         4
 DBCSR| OMP: Max number of threads                                             4
 DBCSR| Split modifier for TAS multiplication algorithm                  1.0E+00 (U)


  **** **** ******  **  PROGRAM STARTED AT               2025-03-22 04:45:48.860
 ***** ** ***  *** **   PROGRAM STARTED ON                 n2cn1101.ab2021.local
 **    ****   ******    PROGRAM STARTED BY                              metdyn02
 ***** **    ** ** **   PROGRAM PROCESS ID                               1631989
  **** **  *******  **  PROGRAM STARTED IN /scratch/hpc-prf-metdyn/metdyn02_Remi
                                           /10_MOL/05_MOL/aUKBqsEOTmq69kFe5R_nOg
                                           /5k_set_final_qzvp/XAHLOJ/DZVP/GW+BSE
                                           /1e-4

 CP2K| version string:                 CP2K version 2025.1 (Development Version)
 CP2K| source code revision number:                                  git:f0c7327
 CP2K| cp2kflags: omp libint fftw3 libxc libgrpp elpa parallel scalapack mpi_f08
 CP2K|             cosma xsmm plumed2 spglib sirius libvori libbqb libvdwxc hdf5
 CP2K| is freely available from                            https://www.cp2k.org/
 CP2K| Program compiled at                          Wed Mar 12 18:25:30 CET 2025
 CP2K| Program compiled on                                              n2login1
 CP2K| Program compiled for                                                local
 CP2K| Data directory path    /opt/software/pc2/EB-SW/software/CP2K/2024.1-foss-
 CP2K| Input file name                                                    GW.inp

 GLOBAL| Force Environment number                                              1
 GLOBAL| Basis set file name            /scratch/hpc-prf-metdyn/metdyn02_Remi/BA
 GLOBAL| Potential file name            /pc2/groups/hpc-prf-metdyn/metdyn02_Remi
 GLOBAL| MM Potential file name                                     MM_POTENTIAL
 GLOBAL| Coordinate file name                                      __STD_INPUT__
 GLOBAL| Method name                                                        CP2K
 GLOBAL| Project name                                                       MoS2
 GLOBAL| Run type                                                         ENERGY
 GLOBAL| FFT library                                                       FFTW3
 GLOBAL| Diagonalization library                                            ELPA
 GLOBAL| DGEMM library                                                      BLAS
 GLOBAL| Minimum number of eigenvectors for ELPA usage                        16
 GLOBAL| Orthonormality check for eigenvectors                          DISABLED
 GLOBAL| Matrix multiplication library                                     COSMA
 GLOBAL| All-to-all communication in single precision                          F
 GLOBAL| FFTs using library dependent lengths                                  F
 GLOBAL| Grid backend                                                       AUTO
 GLOBAL| Global print level                                               MEDIUM
 GLOBAL| MPI I/O enabled                                                       T
 GLOBAL| Total number of message passing processes                           192
 GLOBAL| Number of threads for this process                                    4
 GLOBAL| This output is from process                                           0
 GLOBAL| OpenMP stack size per thread (OMP_STACKSIZE)                    default
 GLOBAL| CPU model name                          AMD EPYC 7763 64-Core Processor
 GLOBAL| CPUID                                                              1002

 MEMORY| system memory details [Kb]
 MEMORY|                        rank 0           min           max       average
 MEMORY| MemTotal            263899260     263899260     263899296     263899268
 MEMORY| MemFree             243158748     241611368     243772068     242857399
 MEMORY| Buffers                159680         76588        253276        173356
 MEMORY| Cached                6543884       6543884       8174164       7057026
 MEMORY| Slab                  2753856       1989128       2753856       2438679
 MEMORY| SReclaimable           495416        312892        534796        447790
 MEMORY| MemLikelyFree       250357728     250253780     251142040     250535571


 *** Fundamental physical constants (SI units) ***

 *** Literature: B. J. Mohr and B. N. Taylor,
 ***             CODATA recommended values of the fundamental physical
 ***             constants: 2006, Web Version 5.1
 ***             http://physics.nist.gov/constants

 Speed of light in vacuum [m/s]                             2.99792458000000E+08
 Magnetic constant or permeability of vacuum [N/A**2]       1.25663706143592E-06
 Electric constant or permittivity of vacuum [F/m]          8.85418781762039E-12
 Planck constant (h) [J*s]                                  6.62606896000000E-34
 Planck constant (h-bar) [J*s]                              1.05457162825177E-34
 Elementary charge [C]                                      1.60217648700000E-19
 Electron mass [kg]                                         9.10938215000000E-31
 Electron g factor [ ]                                     -2.00231930436220E+00
 Proton mass [kg]                                           1.67262163700000E-27
 Fine-structure constant                                    7.29735253760000E-03
 Rydberg constant [1/m]                                     1.09737315685270E+07
 Avogadro constant [1/mol]                                  6.02214179000000E+23
 Boltzmann constant [J/K]                                   1.38065040000000E-23
 Atomic mass unit [kg]                                      1.66053878200000E-27
 Bohr radius [m]                                            5.29177208590000E-11

 *** Conversion factors ***

 [u] -> [a.u.]                                              1.82288848426455E+03
 [Angstrom] -> [Bohr] = [a.u.]                              1.88972613288564E+00
 [a.u.] = [Bohr] -> [Angstrom]                              5.29177208590000E-01
 [a.u.] -> [s]                                              2.41888432650478E-17
 [a.u.] -> [fs]                                             2.41888432650478E-02
 [a.u.] -> [J]                                              4.35974393937059E-18
 [a.u.] -> [N]                                              8.23872205491840E-08
 [a.u.] -> [K]                                              3.15774647902944E+05
 [a.u.] -> [kJ/mol]                                         2.62549961709828E+03
 [a.u.] -> [kcal/mol]                                       6.27509468713739E+02
 [a.u.] -> [Pa]                                             2.94210107994716E+13
 [a.u.] -> [bar]                                            2.94210107994716E+08
 [a.u.] -> [atm]                                            2.90362800883016E+08
 [a.u.] -> [eV]                                             2.72113838565563E+01
 [a.u.] -> [Hz]                                             6.57968392072181E+15
 [a.u.] -> [1/cm] (wave numbers)                            2.19474631370540E+05
 [a.u./Bohr**2] -> [1/cm]                                   5.14048714338585E+03
 

 CELL_TOP| Volume [angstrom^3]:                                     27000.000000
 CELL_TOP| Vector a [angstrom    30.000     0.000     0.000   |a| =    30.000000
 CELL_TOP| Vector b [angstrom     0.000    30.000     0.000   |b| =    30.000000
 CELL_TOP| Vector c [angstrom     0.000     0.000    30.000   |c| =    30.000000
 CELL_TOP| Angle (b,c), alpha [degree]:                                90.000000
 CELL_TOP| Angle (a,c), beta  [degree]:                                90.000000
 CELL_TOP| Angle (a,b), gamma [degree]:                                90.000000
 CELL_TOP| Numerically orthorhombic:                                         YES
 CELL_TOP| Periodicity                                                      NONE

 GENERATE|  Preliminary Number of Bonds generated:                             0
 GENERATE|  Achieved consistency in connectivity generation.

 CELL| Volume [angstrom^3]:                                         27000.000000
 CELL| Vector a [angstrom]:      30.000     0.000     0.000   |a| =    30.000000
 CELL| Vector b [angstrom]:       0.000    30.000     0.000   |b| =    30.000000
 CELL| Vector c [angstrom]:       0.000     0.000    30.000   |c| =    30.000000
 CELL| Angle (b,c), alpha [degree]:                                    90.000000
 CELL| Angle (a,c), beta  [degree]:                                    90.000000
 CELL| Angle (a,b), gamma [degree]:                                    90.000000
 CELL| Numerically orthorhombic:                                             YES
 CELL| Periodicity                                                          NONE

 CELL_REF| Volume [angstrom^3]:                                     27000.000000
 CELL_REF| Vector a [angstrom    30.000     0.000     0.000   |a| =    30.000000
 CELL_REF| Vector b [angstrom     0.000    30.000     0.000   |b| =    30.000000
 CELL_REF| Vector c [angstrom     0.000     0.000    30.000   |c| =    30.000000
 CELL_REF| Angle (b,c), alpha [degree]:                                90.000000
 CELL_REF| Angle (a,c), beta  [degree]:                                90.000000
 CELL_REF| Angle (a,b), gamma [degree]:                                90.000000
 CELL_REF| Numerically orthorhombic:                                         YES
 CELL_REF| Periodicity                                                      NONE

 *******************************************************************************
 *******************************************************************************
 **                                                                           **
 **     #####                         ##              ##                      **
 **    ##   ##            ##          ##              ##                      **
 **   ##     ##                       ##            ######                    **
 **   ##     ##  ##   ##  ##   #####  ##  ##   ####   ##    #####    #####    **
 **   ##     ##  ##   ##  ##  ##      ## ##   ##      ##   ##   ##  ##   ##   **
 **   ##  ## ##  ##   ##  ##  ##      ####     ###    ##   ######   ######    **
 **    ##  ###   ##   ##  ##  ##      ## ##      ##   ##   ##       ##        **
 **     #######   #####   ##   #####  ##  ##  ####    ##    #####   ##        **
 **           ##                                                    ##        **
 **                                                                           **
 **                                                ... make the atoms dance   **
 **                                                                           **
 **            Copyright (C) by CP2K developers group (2000-2025)             **
 **                      J. Chem. Phys. 152, 194103 (2020)                    **
 **                                                                           **
 *******************************************************************************

 DFT| Spin restricted Kohn-Sham (RKS) calculation                            RKS
 DFT| Multiplicity                                                             1
 DFT| Number of spin states                                                    1
 DFT| Charge                                                                   0
 DFT| Self-interaction correction (SIC)                                       NO
 DFT| Cutoffs: density                                              1.000000E-10
 DFT|          gradient                                             1.000000E-10
 DFT|          tau                                                  1.000000E-10
 DFT|          cutoff_smoothing_range                               0.000000E+00
 DFT| XC density smoothing                                                  NONE
 DFT| XC derivatives                                                          PW

 FUNCTIONAL| PBE:
 FUNCTIONAL| J.P.Perdew, K.Burke, M.Ernzerhof, Phys. Rev. Letter, vol. 77, n 18,
 FUNCTIONAL|  pp. 3865-3868, (1996)sx=0.750sc=1.000{spin unpolarized}           


 QS| Method:                                                                GAPW
 QS| Density plane wave grid type                        NON-SPHERICAL FULLSPACE
 QS| Number of grid levels:                                                    4
 QS| Density cutoff [a.u.]:                                                250.0
 QS| Multi grid cutoff [a.u.]: 1) grid level                               250.0
 QS|                           2) grid level                                83.3
 QS|                           3) grid level                                27.8
 QS|                           4) grid level                                 9.3
 QS| Grid level progression factor:                                          3.0
 QS| Relative density cutoff [a.u.]:                                        50.0
 QS| Interaction thresholds: eps_pgf_orb:                                1.0E-12
 QS|                         eps_filter_matrix:                          0.0E+00
 QS|                         eps_core_charge:                            1.0E-14
 QS|                         eps_rho_gspace:                             1.0E-12
 QS|                         eps_rho_rspace:                             1.0E-12
 QS|                         eps_gvg_rspace:                             1.0E-06
 QS|                         eps_ppl:                                    1.0E-02
 QS|                         eps_ppnl:                                   1.0E-08
 QS| GAPW|      One center basis from orbital basis primitives
 QS| GAPW|                   eps_fit:                                    1.0E-04
 QS| GAPW|                   eps_iso:                                    1.0E-12
 QS| GAPW|                   eps_svd:                                    1.0E-08
 QS| GAPW|                   eps_cpc:                                    1.0E-12
 QS| GAPW|   atom-r-grid: quadrature:                                     GC_LOG
 QS| GAPW|      atom-s-grid:  max l :                                          6
 QS| GAPW|      max_l_rho0 :                                                   2


 ATOMIC KIND INFORMATION

  1. Atomic kind: H                                     Number of atoms:       7

     Orbital Basis Set                                        aug-DZVP-MOLOPT-ae

       Number of orbital shell sets:                                           1
       Number of orbital shells:                                               5
       Number of primitive Cartesian functions:                                5
       Number of Cartesian basis functions:                                    9
       Number of spherical basis functions:                                    9
       Norm type:                                                              2

       Normalised Cartesian orbitals:

                        Set   Shell   Orbital            Exponent    Coefficient

                          1       1    2s                0.035000       0.000000
                                                         0.111920       0.009149
                                                         0.374948       0.205449
                                                         1.446686       0.373852
                                                        12.248855       0.310040

                          1       2    3s                0.035000       0.000000
                                                         0.111920       0.143650
                                                         0.374948       0.007287
                                                         1.446686      -0.188851
                                                        12.248855      -0.144753

                          1       3    4s                0.035000       0.090463
                                                         0.111920      -0.203934
                                                         0.374948      -0.000376
                                                         1.446686      -0.000051
                                                        12.248855       0.000000

                          1       4    3px               0.035000       0.000000
                                                         0.111920       0.007225
                                                         0.374948       0.280770
                                                         1.446686       0.896497
                                                        12.248855      -0.764411
                          1       4    3py               0.035000       0.000000
                                                         0.111920       0.007225
                                                         0.374948       0.280770
                                                         1.446686       0.896497
                                                        12.248855      -0.764411
                          1       4    3pz               0.035000       0.000000
                                                         0.111920       0.007225
                                                         0.374948       0.280770
                                                         1.446686       0.896497
                                                        12.248855      -0.764411

                          1       5    4px               0.035000       0.011331
                                                         0.111920       0.048737
                                                         0.374948       0.028490
                                                         1.446686       0.035587
                                                        12.248855       0.000000
                          1       5    4py               0.035000       0.011331
                                                         0.111920       0.048737
                                                         0.374948       0.028490
                                                         1.446686       0.035587
                                                        12.248855       0.000000
                          1       5    4pz               0.035000       0.011331
                                                         0.111920       0.048737
                                                         0.374948       0.028490
                                                         1.446686       0.035587
                                                        12.248855       0.000000

     RI Auxiliary Basis Set             RI_aug-DZVP-MOLOPT-ae_N_RI_009_s_p_d_f_g

       Number of orbital shell sets:                                           5
       Number of orbital shells:                                               5
       Number of primitive Cartesian functions:                                5
       Number of Cartesian basis functions:                                    9
       Number of spherical basis functions:                                    9
       Norm type:                                                              2

       Normalised Cartesian orbitals:

                        Set   Shell   Orbital            Exponent    Coefficient

                          1       1    4px               0.330315       0.356944
                          1       1    4py               0.330315       0.356944
                          1       1    4pz               0.330315       0.356944

                          2       1    1s                0.373568       0.340555

                          3       1    2s                0.886477       0.651119

                          4       1    5px               1.451319       2.270616
                          4       1    5py               1.451319       2.270616
                          4       1    5pz               1.451319       2.270616

                          5       1    3s                5.028848       2.393379

       Atomic covalent radius [Angstrom]:                                  0.320

       Atomic van der Waals radius [Angstrom]:                             1.090

     The atoms of this atomic kind are PAW atoms (GAPW):
       Hard Gaussian function radius:                                      1.200
       Rho0 radius:                                                        1.200
       Maximum GTO radius used for PAW projector construction:            24.566

     GAPW Soft Basis Set                                 aug-DZVP-MOLOPT-ae_soft

       Number of orbital shell sets:                                           1
       Number of orbital shells:                                               5
       Number of primitive Cartesian functions:                                4
       Number of Cartesian basis functions:                                    9
       Number of spherical basis functions:                                    9
       Norm type:                                                              2

       Normalised Cartesian orbitals:

                        Set   Shell   Orbital            Exponent    Coefficient

                          1       1    2s                0.035000       0.000000
                                                         0.111920       0.009149
                                                         0.374948       0.205449
                                                         1.446686       0.373852

                          1       2    3s                0.035000       0.000000
                                                         0.111920       0.143650
                                                         0.374948       0.007287
                                                         1.446686      -0.188851

                          1       3    4s                0.035000       0.090463
                                                         0.111920      -0.203934
                                                         0.374948      -0.000376
                                                         1.446686      -0.000051

                          1       4    3px               0.035000       0.000000
                                                         0.111920       0.007225
                                                         0.374948       0.280770
                                                         1.446686       0.896497
                          1       4    3py               0.035000       0.000000
                                                         0.111920       0.007225
                                                         0.374948       0.280770
                                                         1.446686       0.896497
                          1       4    3pz               0.035000       0.000000
                                                         0.111920       0.007225
                                                         0.374948       0.280770
                                                         1.446686       0.896497

                          1       5    4px               0.035000       0.011331
                                                         0.111920       0.048737
                                                         0.374948       0.028490
                                                         1.446686       0.035587
                          1       5    4py               0.035000       0.011331
                                                         0.111920       0.048737
                                                         0.374948       0.028490
                                                         1.446686       0.035587
                          1       5    4pz               0.035000       0.011331
                                                         0.111920       0.048737
                                                         0.374948       0.028490
                                                         1.446686       0.035587

     AE Potential information for                                            ALL

       Description:                                       All-electron potential
                                          Krack, Parrinello, PCCP 2, 2105 (2000)

       Gaussian exponent of the core charge distribution:              12.500000
       Electronic configuration (s p d ...):                           1   0   0

  2. Atomic kind: C                                     Number of atoms:       6

     Orbital Basis Set                                        aug-DZVP-MOLOPT-ae

       Number of orbital shell sets:                                           2
       Number of orbital shells:                                              10
       Number of primitive Cartesian functions:                               13
       Number of Cartesian basis functions:                                   35
       Number of spherical basis functions:                                   30
       Norm type:                                                              2

       Normalised Cartesian orbitals:

                        Set   Shell   Orbital            Exponent    Coefficient

                          1       1    2px               0.050000       0.000000
                                                         0.096935       0.005344
                                                         0.300899       0.144116
                                                         0.937529       0.673511
                                                         4.145546       1.425967
                          1       1    2py               0.050000       0.000000
                                                         0.096935       0.005344
                                                         0.300899       0.144116
                                                         0.937529       0.673511
                                                         4.145546       1.425967
                          1       1    2pz               0.050000       0.000000
                                                         0.096935       0.005344
                                                         0.300899       0.144116
                                                         0.937529       0.673511
                                                         4.145546       1.425967

                          1       2    3px               0.050000       0.000000
                                                         0.096935       0.066903
                                                         0.300899       0.082631
                                                         0.937529      -0.414500
                                                         4.145546      -0.833488
                          1       2    3py               0.050000       0.000000
                                                         0.096935       0.066903
                                                         0.300899       0.082631
                                                         0.937529      -0.414500
                                                         4.145546      -0.833488
                          1       2    3pz               0.050000       0.000000
                                                         0.096935       0.066903
                                                         0.300899       0.082631
                                                         0.937529      -0.414500
                                                         4.145546      -0.833488

                          1       3    4px               0.050000       0.052477
                                                         0.096935      -0.149600
                                                         0.300899      -0.031452
                                                         0.937529       0.106528
                                                         4.145546       0.000000
                          1       3    4py               0.050000       0.052477
                                                         0.096935      -0.149600
                                                         0.300899      -0.031452
                                                         0.937529       0.106528
                                                         4.145546       0.000000
                          1       3    4pz               0.050000       0.052477
                                                         0.096935      -0.149600
                                                         0.300899      -0.031452
                                                         0.937529       0.106528
                                                         4.145546       0.000000

                          1       4    3dx2              0.050000       0.000000
                                                         0.096935       0.001258
                                                         0.300899       0.105504
                                                         0.937529       0.830801
                                                         4.145546       0.718979
                          1       4    3dxy              0.050000       0.000000
                                                         0.096935       0.002179
                                                         0.300899       0.182739
                                                         0.937529       1.438990
                                                         4.145546       1.245309
                          1       4    3dxz              0.050000       0.000000
                                                         0.096935       0.002179
                                                         0.300899       0.182739
                                                         0.937529       1.438990
                                                         4.145546       1.245309
                          1       4    3dy2              0.050000       0.000000
                                                         0.096935       0.001258
                                                         0.300899       0.105504
                                                         0.937529       0.830801
                                                         4.145546       0.718979
                          1       4    3dyz              0.050000       0.000000
                                                         0.096935       0.002179
                                                         0.300899       0.182739
                                                         0.937529       1.438990
                                                         4.145546       1.245309
                          1       4    3dz2              0.050000       0.000000
                                                         0.096935       0.001258
                                                         0.300899       0.105504
                                                         0.937529       0.830801
                                                         4.145546       0.718979

                          1       5    4dx2              0.050000      -0.011665
                                                         0.096935       0.057456
                                                         0.300899      -0.258169
                                                         0.937529       0.000000
                                                         4.145546       0.000000
                          1       5    4dxy              0.050000      -0.020204
                                                         0.096935       0.099516
                                                         0.300899      -0.447162
                                                         0.937529       0.000000
                                                         4.145546       0.000000
                          1       5    4dxz              0.050000      -0.020204
                                                         0.096935       0.099516
                                                         0.300899      -0.447162
                                                         0.937529       0.000000
                                                         4.145546       0.000000
                          1       5    4dy2              0.050000      -0.011665
                                                         0.096935       0.057456
                                                         0.300899      -0.258169
                                                         0.937529       0.000000
                                                         4.145546       0.000000
                          1       5    4dyz              0.050000      -0.020204
                                                         0.096935       0.099516
                                                         0.300899      -0.447162
                                                         0.937529       0.000000
                                                         4.145546       0.000000
                          1       5    4dz2              0.050000      -0.011665
                                                         0.096935       0.057456
                                                         0.300899      -0.258169
                                                         0.937529       0.000000
                                                         4.145546       0.000000

                          1       6    4fx3              0.050000      -0.000180
                                                         0.096935       0.008160
                                                         0.300899       0.004002
                                                         0.937529       0.000000
                                                         4.145546       0.000000
                          1       6    4fx2y             0.050000      -0.000402
                                                         0.096935       0.018246
                                                         0.300899       0.008949
                                                         0.937529       0.000000
                                                         4.145546       0.000000
                          1       6    4fx2z             0.050000      -0.000402
                                                         0.096935       0.018246
                                                         0.300899       0.008949
                                                         0.937529       0.000000
                                                         4.145546       0.000000
                          1       6    4fxy2             0.050000      -0.000402
                                                         0.096935       0.018246
                                                         0.300899       0.008949
                                                         0.937529       0.000000
                                                         4.145546       0.000000
                          1       6    4fxyz             0.050000      -0.000696
                                                         0.096935       0.031603
                                                         0.300899       0.015500
                                                         0.937529       0.000000
                                                         4.145546       0.000000
                          1       6    4fxz2             0.050000      -0.000402
                                                         0.096935       0.018246
                                                         0.300899       0.008949
                                                         0.937529       0.000000
                                                         4.145546       0.000000
                          1       6    4fy3              0.050000      -0.000180
                                                         0.096935       0.008160
                                                         0.300899       0.004002
                                                         0.937529       0.000000
                                                         4.145546       0.000000
                          1       6    4fy2z             0.050000      -0.000402
                                                         0.096935       0.018246
                                                         0.300899       0.008949
                                                         0.937529       0.000000
                                                         4.145546       0.000000
                          1       6    4fyz2             0.050000      -0.000402
                                                         0.096935       0.018246
                                                         0.300899       0.008949
                                                         0.937529       0.000000
                                                         4.145546       0.000000
                          1       6    4fz3              0.050000      -0.000180
                                                         0.096935       0.008160
                                                         0.300899       0.004002
                                                         0.937529       0.000000
                                                         4.145546       0.000000

                          2       1    1s                0.060000       0.000000
                                                         0.161278       0.024253
                                                         0.523772      -0.029268
                                                         3.176528       0.666384
                                                        10.501907       2.110671
                                                        40.805234       2.242010
                                                       186.270922       1.801845
                                                      1238.394264      -0.490536

                          2       2    2s                0.060000       0.000000
                                                         0.161278       0.080328
                                                         0.523772       0.279468
                                                         3.176528      -0.079506
                                                        10.501907      -0.033488
                                                        40.805234       0.350132
                                                       186.270922      -0.108171
                                                      1238.394264       0.147138

                          2       3    3s                0.060000       0.000000
                                                         0.161278       0.225687
                                                         0.523772      -0.382710
                                                         3.176528      -0.308205
                                                        10.501907      -0.974990
                                                        40.805234      -2.174132
                                                       186.270922       1.755878
                                                      1238.394264     -12.484315

                          2       4    4s                0.060000      -0.055653
                                                         0.161278      -0.019607
                                                         0.523772       0.500289
                                                         3.176528       0.067234
                                                        10.501907       0.000000
                                                        40.805234       0.000000
                                                       186.270922       0.000000
                                                      1238.394264       0.000000

     RI Auxiliary Basis Set             RI_aug-DZVP-MOLOPT-ae_N_RI_060_s_p_d_f_g

       Number of orbital shell sets:                                          18
       Number of orbital shells:                                              18
       Number of primitive Cartesian functions:                               18
       Number of Cartesian basis functions:                                   75
       Number of spherical basis functions:                                   60
       Norm type:                                                              2

       Normalised Cartesian orbitals:

                        Set   Shell   Orbital            Exponent    Coefficient

                          1       1    1s                0.139029       0.162270

                          2       1   13dx2              0.260720       0.156572
                          2       1   13dxy              0.260720       0.271190
                          2       1   13dxz              0.260720       0.271190
                          2       1   13dy2              0.260720       0.156572
                          2       1   13dyz              0.260720       0.271190
                          2       1   13dz2              0.260720       0.156572

                          3       1    8px               0.263737       0.269404
                          3       1    8py               0.263737       0.269404
                          3       1    8pz               0.263737       0.269404

                          4       1   16fx3              0.295019       0.094432
                          4       1   16fx2y             0.295019       0.211156
                          4       1   16fx2z             0.295019       0.211156
                          4       1   16fxy2             0.295019       0.211156
                          4       1   16fxyz             0.295019       0.365732
                          4       1   16fxz2             0.295019       0.211156
                          4       1   16fy3              0.295019       0.094432
                          4       1   16fy2z             0.295019       0.211156
                          4       1   16fyz2             0.295019       0.211156
                          4       1   16fz3              0.295019       0.094432

                          5       1    2s                0.350935       0.324960

                          6       1    9px               0.711576       0.931572
                          6       1    9py               0.711576       0.931572
                          6       1    9pz               0.711576       0.931572

                          7       1   14dx2              0.722037       0.930870
                          7       1   14dxy              0.722037       1.612314
                          7       1   14dxz              0.722037       1.612314
                          7       1   14dy2              0.722037       0.930870
                          7       1   14dyz              0.722037       1.612314
                          7       1   14dz2              0.722037       0.930870

                          8       1   18gx4              0.735195       0.477576
                          8       1   18gx3y             0.735195       1.263547
                          8       1   18gx3z             0.735195       1.263547
                          8       1   18gx2y2            0.735195       1.631232
                          8       1   18gx2yz            0.735195       2.825377
                          8       1   18gx2z2            0.735195       1.631232
                          8       1   18gxy3             0.735195       1.263547
                          8       1   18gxy2z            0.735195       2.825377
                          8       1   18gxyz2            0.735195       2.825377
                          8       1   18gxz3             0.735195       1.263547
                          8       1   18gy4              0.735195       0.477576
                          8       1   18gy3z             0.735195       1.263547
                          8       1   18gy2z2            0.735195       1.631232
                          8       1   18gyz3             0.735195       1.263547
                          8       1   18gz4              0.735195       0.477576

                          9       1    3s                1.027105       0.727145

                         10       1   17fx3              1.228639       2.339694
                         10       1   17fx2y             1.228639       5.231715
                         10       1   17fx2z             1.228639       5.231715
                         10       1   17fxy2             1.228639       5.231715
                         10       1   17fxyz             1.228639       9.061596
                         10       1   17fxz2             1.228639       5.231715
                         10       1   17fy3              1.228639       2.339694
                         10       1   17fy2z             1.228639       5.231715
                         10       1   17fyz2             1.228639       5.231715
                         10       1   17fz3              1.228639       2.339694

                         11       1   10px               1.813548       2.999863
                         11       1   10py               1.813548       2.999863
                         11       1   10pz               1.813548       2.999863

                         12       1   15dx2              2.060642       5.833296
                         12       1   15dxy              2.060642      10.103564
                         12       1   15dxz              2.060642      10.103564
                         12       1   15dy2              2.060642       5.833296
                         12       1   15dyz              2.060642      10.103564
                         12       1   15dz2              2.060642       5.833296

                         13       1    4s                3.115108       1.671148

                         14       1   11px               5.572228      12.203269
                         14       1   11py               5.572228      12.203269
                         14       1   11pz               5.572228      12.203269

                         15       1    5s                9.292692       3.793292

                         16       1   12px              16.974300      49.111129
                         16       1   12py              16.974300      49.111129
                         16       1   12pz              16.974300      49.111129

                         17       1    6s               27.662549       8.596650

                         18       1    7s               82.345042      19.482208

       Atomic covalent radius [Angstrom]:                                  0.770

       Atomic van der Waals radius [Angstrom]:                             1.700

     The atoms of this atomic kind are PAW atoms (GAPW):
       Hard Gaussian function radius:                                      1.512
       Rho0 radius:                                                        1.512
       Maximum GTO radius used for PAW projector construction:            24.566

     GAPW Soft Basis Set                                 aug-DZVP-MOLOPT-ae_soft

       Number of orbital shell sets:                                           2
       Number of orbital shells:                                              10
       Number of primitive Cartesian functions:                                9
       Number of Cartesian basis functions:                                   35
       Number of spherical basis functions:                                   30
       Norm type:                                                              2

       Normalised Cartesian orbitals:

                        Set   Shell   Orbital            Exponent    Coefficient

                          1       1    2px               0.050000       0.000000
                                                         0.096935       0.005344
                                                         0.300899       0.144116
                                                         0.937529       0.673511
                                                         4.145546       1.425967
                          1       1    2py               0.050000       0.000000
                                                         0.096935       0.005344
                                                         0.300899       0.144116
                                                         0.937529       0.673511
                                                         4.145546       1.425967
                          1       1    2pz               0.050000       0.000000
                                                         0.096935       0.005344
                                                         0.300899       0.144116
                                                         0.937529       0.673511
                                                         4.145546       1.425967

                          1       2    3px               0.050000       0.000000
                                                         0.096935       0.066903
                                                         0.300899       0.082631
                                                         0.937529      -0.414500
                                                         4.145546      -0.833488
                          1       2    3py               0.050000       0.000000
                                                         0.096935       0.066903
                                                         0.300899       0.082631
                                                         0.937529      -0.414500
                                                         4.145546      -0.833488
                          1       2    3pz               0.050000       0.000000
                                                         0.096935       0.066903
                                                         0.300899       0.082631
                                                         0.937529      -0.414500
                                                         4.145546      -0.833488

                          1       3    4px               0.050000       0.052477
                                                         0.096935      -0.149600
                                                         0.300899      -0.031452
                                                         0.937529       0.106528
                                                         4.145546       0.000000
                          1       3    4py               0.050000       0.052477
                                                         0.096935      -0.149600
                                                         0.300899      -0.031452
                                                         0.937529       0.106528
                                                         4.145546       0.000000
                          1       3    4pz               0.050000       0.052477
                                                         0.096935      -0.149600
                                                         0.300899      -0.031452
                                                         0.937529       0.106528
                                                         4.145546       0.000000

                          1       4    3dx2              0.050000       0.000000
                                                         0.096935       0.001258
                                                         0.300899       0.105504
                                                         0.937529       0.830801
                                                         4.145546       0.718979
                          1       4    3dxy              0.050000       0.000000
                                                         0.096935       0.002179
                                                         0.300899       0.182739
                                                         0.937529       1.438990
                                                         4.145546       1.245309
                          1       4    3dxz              0.050000       0.000000
                                                         0.096935       0.002179
                                                         0.300899       0.182739
                                                         0.937529       1.438990
                                                         4.145546       1.245309
                          1       4    3dy2              0.050000       0.000000
                                                         0.096935       0.001258
                                                         0.300899       0.105504
                                                         0.937529       0.830801
                                                         4.145546       0.718979
                          1       4    3dyz              0.050000       0.000000
                                                         0.096935       0.002179
                                                         0.300899       0.182739
                                                         0.937529       1.438990
                                                         4.145546       1.245309
                          1       4    3dz2              0.050000       0.000000
                                                         0.096935       0.001258
                                                         0.300899       0.105504
                                                         0.937529       0.830801
                                                         4.145546       0.718979

                          1       5    4dx2              0.050000      -0.011665
                                                         0.096935       0.057456
                                                         0.300899      -0.258169
                                                         0.937529       0.000000
                                                         4.145546       0.000000
                          1       5    4dxy              0.050000      -0.020204
                                                         0.096935       0.099516
                                                         0.300899      -0.447162
                                                         0.937529       0.000000
                                                         4.145546       0.000000
                          1       5    4dxz              0.050000      -0.020204
                                                         0.096935       0.099516
                                                         0.300899      -0.447162
                                                         0.937529       0.000000
                                                         4.145546       0.000000
                          1       5    4dy2              0.050000      -0.011665
                                                         0.096935       0.057456
                                                         0.300899      -0.258169
                                                         0.937529       0.000000
                                                         4.145546       0.000000
                          1       5    4dyz              0.050000      -0.020204
                                                         0.096935       0.099516
                                                         0.300899      -0.447162
                                                         0.937529       0.000000
                                                         4.145546       0.000000
                          1       5    4dz2              0.050000      -0.011665
                                                         0.096935       0.057456
                                                         0.300899      -0.258169
                                                         0.937529       0.000000
                                                         4.145546       0.000000

                          1       6    4fx3              0.050000      -0.000180
                                                         0.096935       0.008160
                                                         0.300899       0.004002
                                                         0.937529       0.000000
                                                         4.145546       0.000000
                          1       6    4fx2y             0.050000      -0.000402
                                                         0.096935       0.018246
                                                         0.300899       0.008949
                                                         0.937529       0.000000
                                                         4.145546       0.000000
                          1       6    4fx2z             0.050000      -0.000402
                                                         0.096935       0.018246
                                                         0.300899       0.008949
                                                         0.937529       0.000000
                                                         4.145546       0.000000
                          1       6    4fxy2             0.050000      -0.000402
                                                         0.096935       0.018246
                                                         0.300899       0.008949
                                                         0.937529       0.000000
                                                         4.145546       0.000000
                          1       6    4fxyz             0.050000      -0.000696
                                                         0.096935       0.031603
                                                         0.300899       0.015500
                                                         0.937529       0.000000
                                                         4.145546       0.000000
                          1       6    4fxz2             0.050000      -0.000402
                                                         0.096935       0.018246
                                                         0.300899       0.008949
                                                         0.937529       0.000000
                                                         4.145546       0.000000
                          1       6    4fy3              0.050000      -0.000180
                                                         0.096935       0.008160
                                                         0.300899       0.004002
                                                         0.937529       0.000000
                                                         4.145546       0.000000
                          1       6    4fy2z             0.050000      -0.000402
                                                         0.096935       0.018246
                                                         0.300899       0.008949
                                                         0.937529       0.000000
                                                         4.145546       0.000000
                          1       6    4fyz2             0.050000      -0.000402
                                                         0.096935       0.018246
                                                         0.300899       0.008949
                                                         0.937529       0.000000
                                                         4.145546       0.000000
                          1       6    4fz3              0.050000      -0.000180
                                                         0.096935       0.008160
                                                         0.300899       0.004002
                                                         0.937529       0.000000
                                                         4.145546       0.000000

                          2       1    1s                0.060000       0.000000
                                                         0.161278       0.024253
                                                         0.523772      -0.029268
                                                         3.176528       0.666384

                          2       2    2s                0.060000       0.000000
                                                         0.161278       0.080328
                                                         0.523772       0.279468
                                                         3.176528      -0.079506

                          2       3    3s                0.060000       0.000000
                                                         0.161278       0.225687
                                                         0.523772      -0.382710
                                                         3.176528      -0.308205

                          2       4    4s                0.060000      -0.055653
                                                         0.161278      -0.019607
                                                         0.523772       0.500289
                                                         3.176528       0.067234

     AE Potential information for                                            ALL

       Description:                                       All-electron potential
                                          Krack, Parrinello, PCCP 2, 2105 (2000)

       Gaussian exponent of the core charge distribution:               4.109048
       Electronic configuration (s p d ...):                           4   2   0

  3. Atomic kind: S                                     Number of atoms:       4

     Orbital Basis Set                                        aug-DZVP-MOLOPT-ae

       Number of orbital shell sets:                                           3
       Number of orbital shells:                                              12
       Number of primitive Cartesian functions:                               18
       Number of Cartesian basis functions:                                   39
       Number of spherical basis functions:                                   34
       Norm type:                                                              2

       Normalised Cartesian orbitals:

                        Set   Shell   Orbital            Exponent    Coefficient

                          1       1    1s                0.070000       0.160238
                                                         0.132026      -0.106319
                                                         0.461903      -0.064590
                                                         2.043261       0.000000
                                                         6.030247       0.000000
                                                        18.817576       0.000000
                                                        61.243244       0.000000
                                                       262.037180       0.000000

                          1       2    2px               0.070000       0.000000
                                                         0.132026      -0.006041
                                                         0.461903       0.020884
                                                         2.043261      -1.163342
                                                         6.030247      -7.192527
                                                        18.817576     -14.902856
                                                        61.243244     -16.017959
                                                       262.037180     -14.606063
                          1       2    2py               0.070000       0.000000
                                                         0.132026      -0.006041
                                                         0.461903       0.020884
                                                         2.043261      -1.163342
                                                         6.030247      -7.192527
                                                        18.817576     -14.902856
                                                        61.243244     -16.017959
                                                       262.037180     -14.606063
                          1       2    2pz               0.070000       0.000000
                                                         0.132026      -0.006041
                                                         0.461903       0.020884
                                                         2.043261      -1.163342
                                                         6.030247      -7.192527
                                                        18.817576     -14.902856
                                                        61.243244     -16.017959
                                                       262.037180     -14.606063

                          1       3    3px               0.070000       0.000000
                                                         0.132026       0.013372
                                                         0.461903       0.460806
                                                         2.043261       0.527227
                                                         6.030247      -0.800963
                                                        18.817576       1.692650
                                                        61.243244      -2.127051
                                                       262.037180       6.627568
                          1       3    3py               0.070000       0.000000
                                                         0.132026       0.013372
                                                         0.461903       0.460806
                                                         2.043261       0.527227
                                                         6.030247      -0.800963
                                                        18.817576       1.692650
                                                        61.243244      -2.127051
                                                       262.037180       6.627568
                          1       3    3pz               0.070000       0.000000
                                                         0.132026       0.013372
                                                         0.461903       0.460806
                                                         2.043261       0.527227
                                                         6.030247      -0.800963
                                                        18.817576       1.692650
                                                        61.243244      -2.127051
                                                       262.037180       6.627568

                          1       4    4px               0.070000       0.000000
                                                         0.132026       0.122461
                                                         0.461903      -0.074630
                                                         2.043261      -0.266435
                                                         6.030247      -0.600117
                                                        18.817576      -2.837173
                                                        61.243244       0.679283
                                                       262.037180      -9.723876
                          1       4    4py               0.070000       0.000000
                                                         0.132026       0.122461
                                                         0.461903      -0.074630
                                                         2.043261      -0.266435
                                                         6.030247      -0.600117
                                                        18.817576      -2.837173
                                                        61.243244       0.679283
                                                       262.037180      -9.723876
                          1       4    4pz               0.070000       0.000000
                                                         0.132026       0.122461
                                                         0.461903      -0.074630
                                                         2.043261      -0.266435
                                                         6.030247      -0.600117
                                                        18.817576      -2.837173
                                                        61.243244       0.679283
                                                       262.037180      -9.723876

                          1       5    5px               0.070000      -0.010761
                                                         0.132026      -0.065366
                                                         0.461903       0.662552
                                                         2.043261       0.000000
                                                         6.030247       0.000000
                                                        18.817576       0.000000
                                                        61.243244       0.000000
                                                       262.037180       0.000000
                          1       5    5py               0.070000      -0.010761
                                                         0.132026      -0.065366
                                                         0.461903       0.662552
                                                         2.043261       0.000000
                                                         6.030247       0.000000
                                                        18.817576       0.000000
                                                        61.243244       0.000000
                                                       262.037180       0.000000
                          1       5    5pz               0.070000      -0.010761
                                                         0.132026      -0.065366
                                                         0.461903       0.662552
                                                         2.043261       0.000000
                                                         6.030247       0.000000
                                                        18.817576       0.000000
                                                        61.243244       0.000000
                                                       262.037180       0.000000

                          1       6    3dx2              0.070000       0.000000
                                                         0.132026       0.010167
                                                         0.461903       0.321348
                                                         2.043261       1.422467
                                                         6.030247      -0.691425
                                                        18.817576       4.642944
                                                        61.243244     -11.887587
                                                       262.037180      63.210336
                          1       6    3dxy              0.070000       0.000000
                                                         0.132026       0.017609
                                                         0.461903       0.556591
                                                         2.043261       2.463785
                                                         6.030247      -1.197583
                                                        18.817576       8.041814
                                                        61.243244     -20.589904
                                                       262.037180     109.483513
                          1       6    3dxz              0.070000       0.000000
                                                         0.132026       0.017609
                                                         0.461903       0.556591
                                                         2.043261       2.463785
                                                         6.030247      -1.197583
                                                        18.817576       8.041814
                                                        61.243244     -20.589904
                                                       262.037180     109.483513
                          1       6    3dy2              0.070000       0.000000
                                                         0.132026       0.010167
                                                         0.461903       0.321348
                                                         2.043261       1.422467
                                                         6.030247      -0.691425
                                                        18.817576       4.642944
                                                        61.243244     -11.887587
                                                       262.037180      63.210336
                          1       6    3dyz              0.070000       0.000000
                                                         0.132026       0.017609
                                                         0.461903       0.556591
                                                         2.043261       2.463785
                                                         6.030247      -1.197583
                                                        18.817576       8.041814
                                                        61.243244     -20.589904
                                                       262.037180     109.483513
                          1       6    3dz2              0.070000       0.000000
                                                         0.132026       0.010167
                                                         0.461903       0.321348
                                                         2.043261       1.422467
                                                         6.030247      -0.691425
                                                        18.817576       4.642944
                                                        61.243244     -11.887587
                                                       262.037180      63.210336

                          1       7    4dx2              0.070000       0.004993
                                                         0.132026       0.031835
                                                         0.461903       0.041246
                                                         2.043261       0.000000
                                                         6.030247       0.000000
                                                        18.817576       0.000000
                                                        61.243244       0.000000
                                                       262.037180       0.000000
                          1       7    4dxy              0.070000       0.008648
                                                         0.132026       0.055140
                                                         0.461903       0.071440
                                                         2.043261       0.000000
                                                         6.030247       0.000000
                                                        18.817576       0.000000
                                                        61.243244       0.000000
                                                       262.037180       0.000000
                          1       7    4dxz              0.070000       0.008648
                                                         0.132026       0.055140
                                                         0.461903       0.071440
                                                         2.043261       0.000000
                                                         6.030247       0.000000
                                                        18.817576       0.000000
                                                        61.243244       0.000000
                                                       262.037180       0.000000
                          1       7    4dy2              0.070000       0.004993
                                                         0.132026       0.031835
                                                         0.461903       0.041246
                                                         2.043261       0.000000
                                                         6.030247       0.000000
                                                        18.817576       0.000000
                                                        61.243244       0.000000
                                                       262.037180       0.000000
                          1       7    4dyz              0.070000       0.008648
[...]
 qs_vxc_create                       91  8.0    0.001    0.001   25.631   25.632
 xc_vxc_pw_create                    90  9.0    0.187    0.253   25.630   25.631
 x_to_yz                            813 12.9    0.799    1.464   22.024   24.668
 mp_sync                            911  9.6   19.120   24.075   19.120   24.075
 xc_pw_derive                       540 11.0    0.004    0.004   19.546   20.103
 yz_to_x                            725 13.2    0.639    0.759   17.951   19.350
 mp_sum_d                          8794  6.9    7.698   16.664    7.698   16.664
 density_rs2pw                       91  7.0    0.004    0.005   14.538   15.566
 ps_wavelet_solve                    91  9.0    5.318    9.776   13.180   14.282
 sum_up_and_integrate                91  8.0    0.001    0.002   13.280   14.073
 integrate_v_rspace                  91  9.0    0.002    0.003   13.205   14.018
 xc_rho_set_and_dset_create          90 10.0    0.222    0.264   11.874   13.318
 xc_pw_divergence                    90 10.0    0.002    0.002   12.602   12.988
 transfer_pw2rs                     456 10.6    0.008    0.012   10.934   12.478
 mp_waitany                       29956 11.5   10.036   12.312   10.036   12.312
 potential_pw2rs                     91 10.0    0.009    0.012   12.048   12.109
 grid_collocate_task_list            91  7.0   10.269   11.749   10.269   11.749
 prepare_gapw_den                    91  8.0    0.002    0.002   10.664   11.295
 transfer_rs2pw                     456  8.4    0.010    0.019    8.876    9.947
 calc_screening_functions             1 10.0    8.120    8.305    9.068    9.254
 transfer_pw2rs_250                 183 11.0    1.919    2.212    7.400    9.078
 mp_alltoall_d54                     91 10.0    4.055    8.594    4.055    8.594
 gspace_mixing                       89  5.0    0.116    0.165    8.284    8.303
 integrate_vhg0_rspace               91  8.0    0.275    0.321    6.832    8.019
 put_rho0_on_grid                    91  9.0    0.133    0.186    7.224    7.855
 transfer_rs2pw_250                 183 10.0    1.839    2.012    5.660    6.767
 mp_waitall_1                     86944 12.0    4.110    5.866    4.110    5.866
 mp_alltoall_d11v                  1648  9.4    4.024    5.777    4.024    5.777
 fft_wrap_pw1pw2_90                 182 10.5    0.036    0.062    2.188    5.727
 mp_alltoall_d45                     92 10.0    4.285    5.408    4.285    5.408
 create_A                             1  8.0    0.006    0.019    5.204    5.245
 fm_general_add_bse                   5 10.2    0.000    0.000    4.809    4.918
 mp_sum_dm                         5555  7.7    4.462    4.820    4.462    4.820
 fm_general_add_bse_5_comm_buff       5 11.2    0.000    0.000    4.261    4.358
 communicate_buffer                   5 12.2    0.000    0.001    4.261    4.358
 broyden_mixing                      89  6.0    3.651    3.711    3.794    3.820
 cp2k_distribution_to_z_slices       91  9.0    0.359    0.428    2.945    3.755
 mp2_ri_gpw_compute_in                1  5.0    0.003    0.005    3.414    3.417
 mp2_ri_gpw_compute_in_loop           1  6.0    0.000    0.000    3.387    3.388
 contract_B_L                         4  7.0    0.011    0.013    2.628    3.176
 qs_scf_new_mos                      90  5.0    0.001    0.001    2.932    3.007
 calculate_rho_atom                 455  9.0    0.885    2.894    0.885    2.894
 cp_fm_syrk                           3  7.0    2.720    2.731    2.720    2.731
 Vh_1c_gg_integrals                  91  8.0    0.022    0.358    0.940    2.704
 calculate_vxc_atom                  91  8.0    0.059    0.274    2.678    2.679
 mp_max_i                           691  3.0    0.859    2.607    0.859    2.607
 eigensolver_symm                    91  6.0    0.006    0.007    2.551    2.561
 gaVxcgb_GC                         180  9.0    0.097    2.453    0.097    2.453
 rpa_num_int_RPA_matrix_operati     100  7.0    0.001    0.004    2.391    2.394
 transfer_pw2rs_90                   91 12.0    0.372    0.497    1.896    2.336
 mp_sum_dv                        24193 10.4    1.998    2.322    1.998    2.322
 xc_functional_eval                 450 10.8    0.001    0.002    1.299    2.266
 pbe_lda_eval                       450 11.8    1.298    2.265    1.298    2.265
 mp_cart_create                     721  9.7    1.659    2.230    1.660    2.230
 mp2_eri_3c_integrate                 1  7.0    0.003    0.005    0.637    2.227
 integrate_set_3c                  3555  8.0    0.567    2.032    0.635    2.223
 dbt_pgrid_create_expert             84 10.8    0.000    0.000    1.635    2.206
 create_B                             1  8.0    0.000    0.001    1.867    2.178
 calculate_rho_atom_coeff            91  6.0    0.127    0.231    2.157    2.170
 calc_mat_Q                         100  8.0    0.000    0.000    2.115    2.131
 contract_S_to_Q                    100  9.0    0.001    0.001    2.103    2.122
 powell_optimize                1166599 11.0    1.696    1.988    1.696    1.988
 cp_fm_redistribute_end              96  8.0    1.008    1.923    1.022    1.932
 mp_isend_dv                      32694 11.7    1.336    1.920    1.336    1.920
 grid_integrate_task_list            91 10.0    0.175    1.868    0.175    1.868
 rs_grid_zero                       457 11.2    1.463    1.848    1.463    1.848
 transfer_rs2pw_90                   91  9.0    0.412    0.485    1.574    1.829
 rs_gather_matrices                  91 10.0    0.003    0.014    0.979    1.827
 mp_isend_im2                       781 13.1    1.345    1.762    1.345    1.762
 pw_integral_ab_c1d_c1d_gs           91  9.0    0.255    0.305    0.869    1.750
 calc_pair_dist_radii                 1 10.0    0.730    0.738    1.478    1.618
 cp_fm_uplo_to_full                 200  8.3    1.540    1.591    1.540    1.591
 transfer_pw2rs_30                   91 12.0    0.403    0.463    1.317    1.588
 pw_derive                          813 11.3    1.363    1.497    1.363    1.497
 pw_copy                           1360 10.6    1.260    1.479    1.260    1.479
 transfer_rs2pw_30                   91  9.0    0.504    0.578    1.248    1.376
 mp_isend_dm3                      3652 11.5    0.333    1.248    0.333    1.248
 pw_gather_p                        907 11.8    0.973    1.191    0.973    1.191
 pw_scatter_p                       995 12.1    1.077    1.166    1.077    1.166
 mp_sendrecv_dv                   34762 10.0    0.979    1.076    0.979    1.076
 dbt_total                            8  8.0    0.000    0.000    0.965    0.965
 dbt_contract                         4  9.0    0.000    0.000    0.895    0.919
 update_ks_atom                      91  8.0    0.078    0.209    0.749    0.898
 pw_poisson_set                      92  8.9    0.002    0.002    0.831    0.872
 calculate_rho0_atom                455  9.0    0.772    0.850    0.772    0.850
 compute_vec_Sigma_x_minus_vxc_       1  4.0    0.000    0.000    0.820    0.820
 pw_copy_to_array                   907 11.8    0.604    0.808    0.604    0.808
 pw_poisson_rebuild                  91  9.0    0.000    0.000    0.741    0.767
 ps_wavelet_create                    1 10.0    0.000    0.000    0.741    0.767
 RS_z_slice_distribution              1 11.0    0.192    0.215    0.741    0.767
 mp_bcast_dm                       3640  9.0    0.671    0.703    0.671    0.703
 qs_energies_init_hamiltonians        1  3.0    0.000    0.000    0.651    0.651
 build_core_hamiltonian_matrix        1  4.0    0.000    0.000    0.646    0.647
 overlap_condnum                      1  5.0    0.000    0.000    0.640    0.646
 arnoldi_conjugate_gradient           5  6.0    0.014    0.017    0.597    0.597
 postprocess_bse                      1  9.0    0.000    0.000    0.539    0.579
 pw_axpy                            905  9.3    0.443    0.543    0.443    0.543
 dbt_copy                            12 10.0    0.000    0.000    0.471    0.507
 pw_copy_from_array                 995 12.1    0.355    0.491    0.355    0.491
 mp_sum_l                          1059  6.4    0.337    0.487    0.337    0.487
 get_oscillator_strengths             1 10.0    0.000    0.000    0.482    0.482
 mp_waitall_2                        52 15.8    0.352    0.473    0.352    0.473
 dbt_reshape                          8 11.5    0.023    0.025    0.428    0.463
 integrate_four_center_load          91 10.0    0.000    0.000    0.309    0.459
 hfx_load_balance                     1 11.0    0.000    0.000    0.308    0.459
 integrate_four_center_getP          91 10.0    0.031    0.037    0.445    0.456
 transfer_rs2pw_10                   91  9.0    0.148    0.189    0.383    0.452
 dbt_tas_multiply                     8 11.5    0.000    0.000    0.445    0.445
 dbt_tas_total                        8 12.5    0.001    0.002    0.445    0.445
 hfx_load_balance_range               1 12.0    0.000    0.000    0.293    0.444
 init_scf_run                         1  3.0    0.000    0.000    0.434    0.434
 dbt_communicate_buffer               8 12.5    0.001    0.001    0.394    0.429
 fft_wrap_pw1pw2_30                 182 10.5    0.005    0.006    0.319    0.423
 cp_fm_cholesky_invert              101  8.0    0.403    0.414    0.403    0.414
 scf_env_initial_rho_setup            1  4.0    0.000    0.000    0.406    0.411
 integrate_four_center_dist_KS       91 10.0    0.020    0.026    0.392    0.393
 dbcsr_sym_matrix_vector_mult      4705  7.0    0.034    0.036    0.350    0.380
 cp_fm_redistribute_start            96  8.0    0.138    0.147    0.249    0.371
 mp_alltoall_z11v                   364 13.5    0.277    0.363    0.277    0.363
 pw_zero                            542 10.3    0.309    0.342    0.309    0.342
 mp_rank_compare                   1902 12.9    0.270    0.336    0.270    0.336
 mp_sum_iv                          351  9.5    0.072    0.335    0.072    0.335
 copy_dbcsr_to_fm                   121  6.5    0.002    0.002    0.256    0.334
 transfer_pw2rs_10                   91 12.0    0.105    0.125    0.314    0.333
 create_integ_mat                     4  6.0    0.001    0.004    0.300    0.308
 array2fm                             4  7.0    0.000    0.000    0.275    0.302
 cp_fm_to_fm_submat_general         112 10.1    0.231    0.286    0.231    0.286
 mp_alltoall_i22                    428  9.1    0.197    0.277    0.197    0.277
 dbt_tas_dbm                          8 13.5    0.000    0.000    0.260    0.260
 cp_fm_cholesky_decompose           102  9.0    0.247    0.257    0.247    0.257
 compute_Erpa_by_freq_int           100  8.0    0.001    0.016    0.253    0.253
 dbcsr_desymmetrize_deep            123  7.4    0.004    0.005    0.174    0.250
 dbt_remap                            8 10.0    0.001    0.003    0.249    0.249
 dbcsr_multiply_generic             135  8.1    0.004    0.005    0.230    0.244
 dbt_tas_mm_1N                        8 14.5    0.000    0.000    0.221    0.237
 dbm_multiply                         8 15.5    0.221    0.237    0.221    0.237
 mp2_main_alloc_hfx                   1  4.0    0.103    0.212    0.103    0.212
 yz_to_xz                           182 14.0    0.013    0.015    0.142    0.200
 calculate_dm_sparse                 90  6.0    0.000    0.001    0.181    0.195
 mp_sum_i                            21  9.7    0.111    0.194    0.111    0.194
 cp_dbcsr_plus_fm_fm_t               90  7.0    0.001    0.001    0.179    0.194
 restraint_control                    1  2.0    0.000    0.000    0.110    0.193
 xz_to_yz                           182 11.0    0.010    0.011    0.158    0.192
 abc_contract                      3555  9.0    0.067    0.191    0.067    0.191
 create_qs_kind_set                   1  2.0    0.000    0.000    0.188    0.189
 read_qs_kind                         5  3.0    0.078    0.099    0.188    0.189
 fm_general_add_bse_1_setup           5 11.2    0.174    0.187    0.174    0.187
 array2fm_fill                        4  8.0    0.011    0.015    0.101    0.173
 fft_wrap_pw1pw2_10                 182 10.5    0.001    0.002    0.128    0.168
 mp_wait                            153  9.0    0.090    0.165    0.090    0.165
 mp_irecv_dv                      32671 11.7    0.031    0.161    0.031    0.161
 dbcsr_rep_row_to_rep_col_vec      4705  8.0    0.012    0.014    0.070    0.155
 qs_init_subsys                       1  2.0    0.002    0.002    0.154    0.154
 dbcsr_col_vec_to_rep_row          4705  8.0    0.015    0.017    0.114    0.151
 dbcsr_add_d                       7133  7.0    0.003    0.003    0.027    0.149
 dbcsr_add_anytype                 7133  8.0    0.004    0.019    0.024    0.146
 cp_fm_symm                          91  7.0    0.135    0.143    0.135    0.143
 qs_env_setup                         1  3.0    0.000    0.000    0.139    0.140
 qs_env_rebuild_pw_env                2  3.5    0.000    0.000    0.138    0.139
 pw_env_rebuild                       1  5.0    0.000    0.000    0.138    0.139
 dbcsr_complete_redistribute        305  8.4    0.017    0.019    0.115    0.139
 array2fm_isendrecv                   4  8.0    0.002    0.003    0.056    0.138
 cp_fm_create                       441  7.8    0.101    0.130    0.101    0.130
 multiply_cannon                    135  9.1    0.008    0.009    0.118    0.129
 fm_general_add_bse_4_buf_from_       1 10.0    0.103    0.118    0.103    0.118
 mp_isendrecv_dv                  69524 12.0    0.048    0.115    0.048    0.115
 mult_B_with_W                        1  8.0    0.000    0.000    0.102    0.113
 parser_read_line                 32623  4.0    0.005    0.005    0.110    0.111
 multiply_cannon_loop               135 10.1    0.006    0.007    0.099    0.111
 dbt_tas_estimate_result_nze          4 12.0    0.003    0.004    0.110    0.110
 parser_read_line_low                48  5.0    0.003    0.029    0.105    0.106
 scale_and_distribute               182 10.0    0.071    0.106    0.071    0.106
 fm_general_add_bse_4_buf_from_       1 10.0    0.102    0.105    0.102    0.105
 write_mo_set_to_restart             90  5.0    0.001    0.086    0.052    0.105
 broadcast_input_information         48  6.0    0.014    0.015    0.101    0.103
 vxc_of_r_new                       360  9.0    0.000    0.008    0.005    0.099
 mp_alltoall_i                       41 13.9    0.050    0.097    0.050    0.097
 mp_bcast_b_src                     187  7.0    0.087    0.097    0.087    0.097
 dbt_tas_replicate                    8 13.5    0.023    0.034    0.086    0.096
 dbcsr_finalize                    8807 10.5    0.005    0.027    0.027    0.095
 array2fm_waitall                     4  8.0    0.000    0.000    0.017    0.093
 scf_post_calculation_gpw             1  3.0    0.000    0.000    0.089    0.089
 write_available_results              1  4.0    0.000    0.000    0.089    0.089
 write_mo_free_results                1  5.0    0.002    0.003    0.089    0.089
 mp_bcast_dv                       4799  9.0    0.063    0.086    0.063    0.086
 external_control                    91  5.0    0.001    0.084    0.086    0.086
 pw_grid_setup                        4  6.0    0.000    0.000    0.085    0.086
 pw_grid_setup_internal               4  7.0    0.001    0.006    0.085    0.086
 fm_general_add_bse_2_comm_entr       5 11.2    0.000    0.000    0.039    0.085
 get_multipoles_mo                    1 10.0    0.000    0.000    0.045    0.085
 make_m2s                           270  9.1    0.003    0.003    0.079    0.083
 dbt_nd_mp_comm                       8 11.0    0.000    0.000    0.014    0.083
 rs_grid_create                      97  8.8    0.000    0.001    0.001    0.082
 offload_create_buffer               99  9.8    0.001    0.081    0.001    0.081
 multiply_cannon_multrec           2320 11.1    0.060    0.075    0.061    0.076
 fm_general_add_bse_3_alloc_buf       5 11.2    0.061    0.073    0.061    0.073
 mp_bcast_i_src                     192  7.0    0.054    0.068    0.054    0.068
 cube_transpose_2                   182 11.0    0.003    0.004    0.033    0.068
 array2fm_info                        4  8.0    0.055    0.062    0.057    0.064
 offload_free_buffer                 99  8.5    0.001    0.062    0.001    0.062
 rs_scatter_matrices                 91  7.0    0.001    0.002    0.007    0.062
 make_images                        270 10.1    0.012    0.014    0.058    0.062
 write_mo_set_low                     5  6.0    0.000    0.000    0.051    0.060
 cp_fm_write_unformatted              5  7.0    0.050    0.051    0.050    0.060
 dbt_tas_communicate_buffer          18 15.8    0.001    0.001    0.047    0.059
 pw_scale                           361  9.5    0.045    0.058    0.045    0.058
 cp_fm_to_fm_matrix                 100  7.1    0.042    0.057    0.042    0.057
 dbcsr_iterator_start             57747  8.8    0.031    0.044    0.038    0.056
 copy_fm_to_dbcsr                   184  8.0    0.000    0.000    0.044    0.055
 fm_general_add_bse_6_buffer_to       1 10.0    0.028    0.054    0.028    0.054
 cp_fm_set_all                      140  9.9    0.040    0.054    0.040    0.054
 dbt_tas_replicate_communicate_       8 14.5    0.000    0.000    0.041    0.052
 dbt_split_blocks_generic            20  8.8    0.016    0.019    0.049    0.052
 dbcsr_copy                       19573  7.6    0.027    0.029    0.049    0.051
 pw_grid_sort                         4  8.0    0.035    0.035    0.048    0.050
 compute_max_radius                   1  6.0    0.045    0.050    0.045    0.050
 dbm_reserve_blocks                  68 14.0    0.045    0.049    0.045    0.049
 fm_general_add_bse_6_buffer_to       1 10.0    0.035    0.048    0.035    0.048
 dbcsr_merge_all                   7934 11.2    0.009    0.033    0.017    0.047
 ao_to_mo_and_store_B_mult_gw_1       5  7.0    0.000    0.000    0.040    0.046
 mp_irecv_dm3                      3652 11.5    0.013    0.045    0.013    0.045
 truncate_BSE_matrices                1  8.0    0.000    0.000    0.036    0.045
 array2fm_buffer_send                 4  8.0    0.040    0.044    0.040    0.044
 cube_transpose_1                   182 14.0    0.003    0.004    0.025    0.044
 cp_fm_scale_and_add                  5  9.4    0.028    0.043    0.028    0.043
 dbt_tas_reserve_blocks_index        60 12.9    0.001    0.001    0.038    0.042
 hirshfeld_integration                1  6.0    0.001    0.007    0.041    0.041
 calculate_hirshfeld_normalizat       1  6.0    0.001    0.007    0.035    0.039
 xc_pw_smooth                        90 10.0    0.000    0.000    0.028    0.039
 ao_to_mo_and_store_B_mult_bse_       5  7.0    0.000    0.000    0.032    0.037
 Q_trace_and_add_unit_matrix        100  8.0    0.000    0.001    0.023    0.035
 mp_bcast_am_src                     48  7.0    0.030    0.034    0.031    0.035
 dbt_distribution_new_expert         76 10.1    0.001    0.001    0.031    0.035
 calc_fm_mat_S_rpa                  100  9.0    0.013    0.034    0.013    0.034
 dbcsr_iterator_stop              57747  8.8    0.022    0.028    0.027    0.034
 dbt_tas_reshape                     10 14.0    0.000    0.000    0.030    0.033
 -------------------------------------------------------------------------------

 The number of warnings for this run is : 1
 
 -------------------------------------------------------------------------------
  **** **** ******  **  PROGRAM ENDED AT                 2025-03-22 04:51:15.061
 ***** ** ***  *** **   PROGRAM RAN ON                     n2cn1101.ab2021.local
 **    ****   ******    PROGRAM RAN BY                                  metdyn02
 ***** **    ** ** **   PROGRAM PROCESS ID                               1631989
  **** **  *******  **  PROGRAM STOPPED IN /scratch/hpc-prf-metdyn/metdyn02_Remi
                                           /10_MOL/05_MOL/aUKBqsEOTmq69kFe5R_nOg
                                           /5k_set_final_qzvp/XAHLOJ/DZVP/GW+BSE
                                           /1e-4
