 DBCSR| CPU Multiplication driver                                           BLAS (U)
 DBCSR| Multrec recursion limit                                              512 (U)
 DBCSR| Multiplication stack size                                           1000 (D)
 DBCSR| Maximum elements for images                                    UNLIMITED (U)
 DBCSR| Multiplicative factor virtual images                                   1 (U)
 DBCSR| Use multiplication densification                                       T (D)
 DBCSR| Multiplication size stacks                                             3 (U)
 DBCSR| Use memory pool for CPU allocation                                     F (U)
 DBCSR| Number of 3D layers                                               SINGLE (U)
 DBCSR| Use MPI memory allocation                                              F (U)
 DBCSR| Use RMA algorithm                                                      F (U)
 DBCSR| Use Communication thread                                               T (U)
 DBCSR| Communication thread load                                             75 (D)
 DBCSR| MPI: My process id                                                     0
 DBCSR| MPI: Number of processes                                             216
 DBCSR| OMP: Current number of threads                                         4
 DBCSR| OMP: Max number of threads                                             4
 DBCSR| Split modifier for TAS multiplication algorithm                  1.0E+00 (U)


  **** **** ******  **  PROGRAM STARTED AT               2025-04-02 19:50:30.222
 ***** ** ***  *** **   PROGRAM STARTED ON                          i03r02c03s11
 **    ****   ******    PROGRAM STARTED BY                               di38fab
 ***** **    ** ** **   PROGRAM PROCESS ID                               2304522
  **** **  *******  **  PROGRAM STARTED IN /hppfs/scratch/04/di38fab/07_MOL_non_
                                           aug/05_MOL_non_aug/05_MOL/aUKBqsEOTmq
                                           69kFe5R_nOg/5k_set_final_qzvp/JAYDUI/
                                           cc-pV5Z/TDDFT

 CP2K| version string:                 CP2K version 2025.1 (Development Version)
 CP2K| source code revision number:                                  git:d2e611a
 CP2K| cp2kflags: omp libint fftw3 libxc parallel scalapack max_contr=4         
 CP2K| is freely available from                            https://www.cp2k.org/
 CP2K| Program compiled at                       Thu 06 Mar 2025 05:09:20 PM CET
 CP2K| Program compiled on                                               login02
 CP2K| Program compiled for                                        Supermuc-foss
 CP2K| Data directory path                  /hppfs/work/pn36zo/di38fab/cp2k/data
 CP2K| Input file name                                                    GW.inp

 GLOBAL| Force Environment number                                              1
 GLOBAL| Basis set file name            /hppfs/scratch/04/di38fab/04_TMD/BASIS_A
 GLOBAL| Potential file name            /hppfs/work/pn36zo/di38fab/cp2k/data/ALL
 GLOBAL| MM Potential file name                                     MM_POTENTIAL
 GLOBAL| Coordinate file name                                      __STD_INPUT__
 GLOBAL| Method name                                                        CP2K
 GLOBAL| Project name                                                       MoS2
 GLOBAL| Run type                                                         ENERGY
 GLOBAL| FFT library                                                       FFTW3
 GLOBAL| Diagonalization library                                       ScaLAPACK
 GLOBAL| DGEMM library                                                      BLAS
 GLOBAL| Orthonormality check for eigenvectors                          DISABLED
 GLOBAL| Matrix multiplication library                                 ScaLAPACK
 GLOBAL| All-to-all communication in single precision                          F
 GLOBAL| FFTs using library dependent lengths                                  F
 GLOBAL| Grid backend                                                       AUTO
 GLOBAL| Global print level                                               MEDIUM
 GLOBAL| MPI I/O enabled                                                       T
 GLOBAL| Total number of message passing processes                           216
 GLOBAL| Number of threads for this process                                    4
 GLOBAL| This output is from process                                           0
 GLOBAL| OpenMP stack size per thread (OMP_STACKSIZE)                    default
 GLOBAL| CPU model name             Intel(R) Xeon(R) Platinum 8174 CPU @ 3.10GHz

 MEMORY| system memory details [Kb]
 MEMORY|                        rank 0           min           max       average
 MEMORY| MemTotal             98436664      98436660      98436708      98436662
 MEMORY| MemFree              85296620      85210428      85456456      85362657
 MEMORY| Buffers                     0             0             0             0
 MEMORY| Cached                2345628       2344080       2352408       2345611
 MEMORY| Slab                   979704        956244        991936        978031
 MEMORY| SReclaimable           228416        211772        230820        223787
 MEMORY| MemLikelyFree        87870664      87780264      88022792      87932056


 *** Fundamental physical constants (SI units) ***

 *** Literature: B. J. Mohr and B. N. Taylor,
 ***             CODATA recommended values of the fundamental physical
 ***             constants: 2006, Web Version 5.1
 ***             http://physics.nist.gov/constants

 Speed of light in vacuum [m/s]                             2.99792458000000E+08
 Magnetic constant or permeability of vacuum [N/A**2]       1.25663706143592E-06
 Electric constant or permittivity of vacuum [F/m]          8.85418781762039E-12
 Planck constant (h) [J*s]                                  6.62606896000000E-34
 Planck constant (h-bar) [J*s]                              1.05457162825177E-34
 Elementary charge [C]                                      1.60217648700000E-19
 Electron mass [kg]                                         9.10938215000000E-31
 Electron g factor [ ]                                     -2.00231930436220E+00
 Proton mass [kg]                                           1.67262163700000E-27
 Fine-structure constant                                    7.29735253760000E-03
 Rydberg constant [1/m]                                     1.09737315685270E+07
 Avogadro constant [1/mol]                                  6.02214179000000E+23
 Boltzmann constant [J/K]                                   1.38065040000000E-23
 Atomic mass unit [kg]                                      1.66053878200000E-27
 Bohr radius [m]                                            5.29177208590000E-11

 *** Conversion factors ***

 [u] -> [a.u.]                                              1.82288848426455E+03
 [Angstrom] -> [Bohr] = [a.u.]                              1.88972613288564E+00
 [a.u.] = [Bohr] -> [Angstrom]                              5.29177208590000E-01
 [a.u.] -> [s]                                              2.41888432650478E-17
 [a.u.] -> [fs]                                             2.41888432650478E-02
 [a.u.] -> [J]                                              4.35974393937059E-18
 [a.u.] -> [N]                                              8.23872205491840E-08
 [a.u.] -> [K]                                              3.15774647902944E+05
 [a.u.] -> [kJ/mol]                                         2.62549961709828E+03
 [a.u.] -> [kcal/mol]                                       6.27509468713739E+02
 [a.u.] -> [Pa]                                             2.94210107994716E+13
 [a.u.] -> [bar]                                            2.94210107994716E+08
 [a.u.] -> [atm]                                            2.90362800883016E+08
 [a.u.] -> [eV]                                             2.72113838565563E+01
 [a.u.] -> [Hz]                                             6.57968392072181E+15
 [a.u.] -> [1/cm] (wave numbers)                            2.19474631370540E+05
 [a.u./Bohr**2] -> [1/cm]                                   5.14048714338585E+03
 

 CELL_TOP| Volume [angstrom^3]:                                     27000.000000
 CELL_TOP| Vector a [angstrom    30.000     0.000     0.000   |a| =    30.000000
 CELL_TOP| Vector b [angstrom     0.000    30.000     0.000   |b| =    30.000000
 CELL_TOP| Vector c [angstrom     0.000     0.000    30.000   |c| =    30.000000
 CELL_TOP| Angle (b,c), alpha [degree]:                                90.000000
 CELL_TOP| Angle (a,c), beta  [degree]:                                90.000000
 CELL_TOP| Angle (a,b), gamma [degree]:                                90.000000
 CELL_TOP| Numerically orthorhombic:                                         YES
 CELL_TOP| Periodicity                                                      NONE

 GENERATE|  Preliminary Number of Bonds generated:                             0
 GENERATE|  Achieved consistency in connectivity generation.

 CELL| Volume [angstrom^3]:                                         27000.000000
 CELL| Vector a [angstrom]:      30.000     0.000     0.000   |a| =    30.000000
 CELL| Vector b [angstrom]:       0.000    30.000     0.000   |b| =    30.000000
 CELL| Vector c [angstrom]:       0.000     0.000    30.000   |c| =    30.000000
 CELL| Angle (b,c), alpha [degree]:                                    90.000000
 CELL| Angle (a,c), beta  [degree]:                                    90.000000
 CELL| Angle (a,b), gamma [degree]:                                    90.000000
 CELL| Numerically orthorhombic:                                             YES
 CELL| Periodicity                                                          NONE

 CELL_REF| Volume [angstrom^3]:                                     27000.000000
 CELL_REF| Vector a [angstrom    30.000     0.000     0.000   |a| =    30.000000
 CELL_REF| Vector b [angstrom     0.000    30.000     0.000   |b| =    30.000000
 CELL_REF| Vector c [angstrom     0.000     0.000    30.000   |c| =    30.000000
 CELL_REF| Angle (b,c), alpha [degree]:                                90.000000
 CELL_REF| Angle (a,c), beta  [degree]:                                90.000000
 CELL_REF| Angle (a,b), gamma [degree]:                                90.000000
 CELL_REF| Numerically orthorhombic:                                         YES
 CELL_REF| Periodicity                                                      NONE

 *******************************************************************************
 *******************************************************************************
 **                                                                           **
 **     #####                         ##              ##                      **
 **    ##   ##            ##          ##              ##                      **
 **   ##     ##                       ##            ######                    **
 **   ##     ##  ##   ##  ##   #####  ##  ##   ####   ##    #####    #####    **
 **   ##     ##  ##   ##  ##  ##      ## ##   ##      ##   ##   ##  ##   ##   **
 **   ##  ## ##  ##   ##  ##  ##      ####     ###    ##   ######   ######    **
 **    ##  ###   ##   ##  ##  ##      ## ##      ##   ##   ##       ##        **
 **     #######   #####   ##   #####  ##  ##  ####    ##    #####   ##        **
 **           ##                                                    ##        **
 **                                                                           **
 **                                                ... make the atoms dance   **
 **                                                                           **
 **            Copyright (C) by CP2K developers group (2000-2025)             **
 **                      J. Chem. Phys. 152, 194103 (2020)                    **
 **                                                                           **
 *******************************************************************************

 DFT| Spin restricted Kohn-Sham (RKS) calculation                            RKS
 DFT| Multiplicity                                                             1
 DFT| Number of spin states                                                    1
 DFT| Charge                                                                   0
 DFT| Self-interaction correction (SIC)                                       NO
 DFT| Cutoffs: density                                              1.000000E-10
 DFT|          gradient                                             1.000000E-10
 DFT|          tau                                                  1.000000E-10
 DFT|          cutoff_smoothing_range                               0.000000E+00
 DFT| XC density smoothing                                                  NONE
 DFT| XC derivatives                                                          PW

 FUNCTIONAL| PBE:
 FUNCTIONAL| J.P.Perdew, K.Burke, M.Ernzerhof, Phys. Rev. Letter, vol. 77, n 18,
 FUNCTIONAL|  pp. 3865-3868, (1996)sx=0.750sc=1.000{spin unpolarized}           


 QS| Method:                                                                GAPW
 QS| Density plane wave grid type                        NON-SPHERICAL FULLSPACE
 QS| Number of grid levels:                                                    4
 QS| Density cutoff [a.u.]:                                                250.0
 QS| Multi grid cutoff [a.u.]: 1) grid level                               250.0
 QS|                           2) grid level                                83.3
 QS|                           3) grid level                                27.8
 QS|                           4) grid level                                 9.3
 QS| Grid level progression factor:                                          3.0
 QS| Relative density cutoff [a.u.]:                                        50.0
 QS| Interaction thresholds: eps_pgf_orb:                                1.0E-12
 QS|                         eps_filter_matrix:                          0.0E+00
 QS|                         eps_core_charge:                            1.0E-14
 QS|                         eps_rho_gspace:                             1.0E-12
 QS|                         eps_rho_rspace:                             1.0E-12
 QS|                         eps_gvg_rspace:                             1.0E-06
 QS|                         eps_ppl:                                    1.0E-02
 QS|                         eps_ppnl:                                   1.0E-08
 QS| GAPW|      One center basis from orbital basis primitives
 QS| GAPW|                   eps_fit:                                    1.0E-04
 QS| GAPW|                   eps_iso:                                    1.0E-12
 QS| GAPW|                   eps_svd:                                    1.0E-08
 QS| GAPW|                   eps_cpc:                                    1.0E-12
 QS| GAPW|   atom-r-grid: quadrature:                                     GC_LOG
 QS| GAPW|      atom-s-grid:  max l :                                         10
 QS| GAPW|      max_l_rho0 :                                                   2


 ATOMIC KIND INFORMATION

  1. Atomic kind: H                                     Number of atoms:       8

     Orbital Basis Set                                                   cc-pV5Z

       Number of orbital shell sets:                                           5
       Number of orbital shells:                                              15
       Number of primitive Cartesian functions:                               18
       Number of Cartesian basis functions:                                   70
       Number of spherical basis functions:                                   55
       Norm type:                                                              2

       Normalised Cartesian orbitals:

                        Set   Shell   Orbital            Exponent    Coefficient

                          1       1    1s              402.000000       0.000000
                                                        60.240000       0.000000
                                                        13.730000       0.000000
                                                         3.905000       0.000000
                                                         1.283000       0.859172
                                                         0.465500       0.000000
                                                         0.181100       0.000000
                                                         0.072790       0.000000

                          1       2    2s              402.000000       0.000000
                                                        60.240000       0.000000
                                                        13.730000       0.000000
                                                         3.905000       0.000000
                                                         1.283000       0.000000
                                                         0.465500       0.401652
                                                         0.181100       0.000000
                                                         0.072790       0.000000

                          1       3    3s              402.000000       0.017852
                                                        60.240000       0.033364
                                                        13.730000       0.056940
                                                         3.905000       0.088850
                                                         1.283000       0.122259
                                                         0.465500       0.132938
                                                         0.181100       0.086318
                                                         0.072790       0.017622

                          1       4    4s              402.000000       0.000000
                                                        60.240000       0.000000
                                                        13.730000       0.000000
                                                         3.905000       0.000000
                                                         1.283000       0.000000
                                                         0.465500       0.000000
                                                         0.181100       0.197856
                                                         0.072790       0.000000

                          1       5    5s              402.000000       0.000000
                                                        60.240000       0.000000
                                                        13.730000       0.000000
                                                         3.905000       0.000000
                                                         1.283000       0.000000
                                                         0.465500       0.000000
                                                         0.181100       0.000000
                                                         0.072790       0.099877

                          2       1    1px               4.516000       9.383881
                                                         1.712000       0.000000
                                                         0.649000       0.000000
                                                         0.246000       0.000000
                          2       1    1py               4.516000       9.383881
                                                         1.712000       0.000000
                                                         0.649000       0.000000
                                                         0.246000       0.000000
                          2       1    1pz               4.516000       9.383881
                                                         1.712000       0.000000
                                                         0.649000       0.000000
                                                         0.246000       0.000000

                          2       2    2px               4.516000       0.000000
                                                         1.712000       2.791385
                                                         0.649000       0.000000
                                                         0.246000       0.000000
                          2       2    2py               4.516000       0.000000
                                                         1.712000       2.791385
                                                         0.649000       0.000000
                                                         0.246000       0.000000
                          2       2    2pz               4.516000       0.000000
                                                         1.712000       2.791385
                                                         0.649000       0.000000
                                                         0.246000       0.000000

                          2       3    3px               4.516000       0.000000
                                                         1.712000       0.000000
                                                         0.649000       0.830321
                                                         0.246000       0.000000
                          2       3    3py               4.516000       0.000000
                                                         1.712000       0.000000
                                                         0.649000       0.830321
                                                         0.246000       0.000000
                          2       3    3pz               4.516000       0.000000
                                                         1.712000       0.000000
                                                         0.649000       0.830321
                                                         0.246000       0.000000

                          2       4    4px               4.516000       0.000000
                                                         1.712000       0.000000
                                                         0.649000       0.000000
                                                         0.246000       0.246950
                          2       4    4py               4.516000       0.000000
                                                         1.712000       0.000000
                                                         0.649000       0.000000
                                                         0.246000       0.246950
                          2       4    4pz               4.516000       0.000000
                                                         1.712000       0.000000
                                                         0.649000       0.000000
                                                         0.246000       0.246950

                          3       1    1dx2              2.950000      10.929442
                                                         1.206000       0.000000
                                                         0.493000       0.000000
                          3       1    1dxy              2.950000      18.930349
                                                         1.206000       0.000000
                                                         0.493000       0.000000
                          3       1    1dxz              2.950000      18.930349
                                                         1.206000       0.000000
                                                         0.493000       0.000000
                          3       1    1dy2              2.950000      10.929442
                                                         1.206000       0.000000
                                                         0.493000       0.000000
                          3       1    1dyz              2.950000      18.930349
                                                         1.206000       0.000000
                                                         0.493000       0.000000
                          3       1    1dz2              2.950000      10.929442
                                                         1.206000       0.000000
                                                         0.493000       0.000000

                          3       2    2dx2              2.950000       0.000000
                                                         1.206000       2.284374
                                                         0.493000       0.000000
                          3       2    2dxy              2.950000       0.000000
                                                         1.206000       3.956652
                                                         0.493000       0.000000
                          3       2    2dxz              2.950000       0.000000
                                                         1.206000       3.956652
                                                         0.493000       0.000000
                          3       2    2dy2              2.950000       0.000000
                                                         1.206000       2.284374
                                                         0.493000       0.000000
                          3       2    2dyz              2.950000       0.000000
                                                         1.206000       3.956652
                                                         0.493000       0.000000
                          3       2    2dz2              2.950000       0.000000
                                                         1.206000       2.284374
                                                         0.493000       0.000000

                          3       3    3dx2              2.950000       0.000000
                                                         1.206000       0.000000
                                                         0.493000       0.477410
                          3       3    3dxy              2.950000       0.000000
                                                         1.206000       0.000000
                                                         0.493000       0.826898
                          3       3    3dxz              2.950000       0.000000
                                                         1.206000       0.000000
                                                         0.493000       0.826898
                          3       3    3dy2              2.950000       0.000000
                                                         1.206000       0.000000
                                                         0.493000       0.477410
                          3       3    3dyz              2.950000       0.000000
                                                         1.206000       0.000000
                                                         0.493000       0.826898
                          3       3    3dz2              2.950000       0.000000
                                                         1.206000       0.000000
                                                         0.493000       0.477410

                          4       1    1fx3              2.506000      11.632200
                                                         0.875000       0.000000
                          4       1    1fx2y             2.506000      26.010389
                                                         0.875000       0.000000
                          4       1    1fx2z             2.506000      26.010389
                                                         0.875000       0.000000
                          4       1    1fxy2             2.506000      26.010389
                                                         0.875000       0.000000
                          4       1    1fxyz             2.506000      45.051316
                                                         0.875000       0.000000
                          4       1    1fxz2             2.506000      26.010389
                                                         0.875000       0.000000
                          4       1    1fy3              2.506000      11.632200
                                                         0.875000       0.000000
                          4       1    1fy2z             2.506000      26.010389
                                                         0.875000       0.000000
                          4       1    1fyz2             2.506000      26.010389
                                                         0.875000       0.000000
                          4       1    1fz3              2.506000      11.632200
                                                         0.875000       0.000000

                          4       2    2fx3              2.506000       0.000000
                                                         0.875000       1.090116
                          4       2    2fx2y             2.506000       0.000000
                                                         0.875000       2.437573
                          4       2    2fx2z             2.506000       0.000000
                                                         0.875000       2.437573
                          4       2    2fxy2             2.506000       0.000000
                                                         0.875000       2.437573
                          4       2    2fxyz             2.506000       0.000000
                                                         0.875000       4.222000
                          4       2    2fxz2             2.506000       0.000000
                                                         0.875000       2.437573
                          4       2    2fy3              2.506000       0.000000
                                                         0.875000       1.090116
                          4       2    2fy2z             2.506000       0.000000
                                                         0.875000       2.437573
                          4       2    2fyz2             2.506000       0.000000
                                                         0.875000       2.437573
                          4       2    2fz3              2.506000       0.000000
                                                         0.875000       1.090116

                          5       1    1gx4              2.358000      11.774186
                          5       1    1gx3y             2.358000      31.151567
                          5       1    1gx3z             2.358000      31.151567
                          5       1    1gx2y2            2.358000      40.216500
                          5       1    1gx2yz            2.358000      69.657021
                          5       1    1gx2z2            2.358000      40.216500
                          5       1    1gxy3             2.358000      31.151567
                          5       1    1gxy2z            2.358000      69.657021
                          5       1    1gxyz2            2.358000      69.657021
                          5       1    1gxz3             2.358000      31.151567
                          5       1    1gy4              2.358000      11.774186
                          5       1    1gy3z             2.358000      31.151567
                          5       1    1gy2z2            2.358000      40.216500
                          5       1    1gyz3             2.358000      31.151567
                          5       1    1gz4              2.358000      11.774186

     RI Auxiliary Basis Set                                        cc-pV5Z-RIFIT

       Number of orbital shell sets:                                          21
       Number of orbital shells:                                              21
       Number of primitive Cartesian functions:                               21
       Number of Cartesian basis functions:                                  126
       Number of spherical basis functions:                                   91
       Norm type:                                                              2

       Normalised Cartesian orbitals:

                        Set   Shell   Orbital            Exponent    Coefficient

                          1       1    1s                0.236911       0.242019

                          2       1    1px               0.347892       0.380843
                          2       1    1py               0.347892       0.380843
                          2       1    1pz               0.347892       0.380843

                          3       1    1s                0.506054       0.427620

                          4       1    1fx3              0.572873       0.420326
                          4       1    1fx2y             0.572873       0.939876
                          4       1    1fx2z             0.572873       0.939876
                          4       1    1fxy2             0.572873       0.939876
                          4       1    1fxyz             0.572873       1.627914
                          4       1    1fxz2             0.572873       0.939876
                          4       1    1fy3              0.572873       0.420326
                          4       1    1fy2z             0.572873       0.939876
                          4       1    1fyz2             0.572873       0.939876
                          4       1    1fz3              0.572873       0.420326

                          5       1    1dx2              0.625366       0.723843
                          5       1    1dxy              0.625366       1.253733
                          5       1    1dxz              0.625366       1.253733
                          5       1    1dy2              0.625366       0.723843
                          5       1    1dyz              0.625366       1.253733
                          5       1    1dz2              0.625366       0.723843

                          6       1    1px               0.805545       1.087808
                          6       1    1py               0.805545       1.087808
                          6       1    1pz               0.805545       1.087808

                          7       1    1dx2              0.979237       1.586584
                          7       1    1dxy              0.979237       2.748044
                          7       1    1dxz              0.979237       2.748044
                          7       1    1dy2              0.979237       1.586584
                          7       1    1dyz              0.979237       2.748044
                          7       1    1dz2              0.979237       1.586584

                          8       1    1s                0.994218       0.709613

                          9       1    1fx3              1.198110       2.210915
                          9       1    1fx2y             1.198110       4.943756
                          9       1    1fx2z             1.198110       4.943756
                          9       1    1fxy2             1.198110       4.943756
                          9       1    1fxyz             1.198110       8.562836
                          9       1    1fxz2             1.198110       4.943756
                          9       1    1fy3              1.198110       2.210915
                          9       1    1fy2z             1.198110       4.943756
                          9       1    1fyz2             1.198110       4.943756
                          9       1    1fz3              1.198110       2.210915

                         10       1    1gx4              1.231920       1.974865
                         10       1    1gx3y             1.231920       5.225001
                         10       1    1gx3z             1.231920       5.225001
                         10       1    1gx2y2            1.231920       6.745447
                         10       1    1gx2yz            1.231920      11.683456
                         10       1    1gx2z2            1.231920       6.745447
                         10       1    1gxy3             1.231920       5.225001
                         10       1    1gxy2z            1.231920      11.683456
                         10       1    1gxyz2            1.231920      11.683456
                         10       1    1gxz3             1.231920       5.225001
                         10       1    1gy4              1.231920       1.974865
                         10       1    1gy3z             1.231920       5.225001
                         10       1    1gy2z2            1.231920       6.745447
                         10       1    1gyz3             1.231920       5.225001
                         10       1    1gz4              1.231920       1.974865

                         11       1    1px               1.248660       1.881462
                         11       1    1py               1.248660       1.881462
                         11       1    1pz               1.248660       1.881462

                         12       1    1dx2              1.710630       4.211459
                         12       1    1dxy              1.710630       7.294461
                         12       1    1dxz              1.710630       7.294461
                         12       1    1dy2              1.710630       4.211459
                         12       1    1dyz              1.710630       7.294461
                         12       1    1dz2              1.710630       4.211459

                         13       1    1s                1.775100       1.096042

                         14       1    1px               2.052170       3.501118
                         14       1    1py               2.052170       3.501118
                         14       1    1pz               2.052170       3.501118

                         15       1    1gx4              2.987800      22.576266
                         15       1    1gx3y             2.987800      59.731185
                         15       1    1gx3z             2.987800      59.731185
                         15       1    1gx2y2            2.987800      77.112629
                         15       1    1gx2yz            2.987800     133.562991
                         15       1    1gx2z2            2.987800      77.112629
                         15       1    1gxy3             2.987800      59.731185
                         15       1    1gxy2z            2.987800     133.562991
                         15       1    1gxyz2            2.987800     133.562991
                         15       1    1gxz3             2.987800      59.731185
                         15       1    1gy4              2.987800      22.576266
                         15       1    1gy3z             2.987800      59.731185
                         15       1    1gy2z2            2.987800      77.112629
                         15       1    1gyz3             2.987800      59.731185
                         15       1    1gz4              2.987800      22.576266

                         16       1    1fx3              3.101510      18.792914
                         16       1    1fx2y             3.101510      42.022232
                         16       1    1fx2z             3.101510      42.022232
                         16       1    1fxy2             3.101510      42.022232
                         16       1    1fxyz             3.101510      72.784641
                         16       1    1fxz2             3.101510      42.022232
                         16       1    1fy3              3.101510      18.792914
                         16       1    1fy2z             3.101510      42.022232
                         16       1    1fyz2             3.101510      42.022232
                         16       1    1fz3              3.101510      18.792914

                         17       1    1hx5              3.247390      34.106027
                         17       1    1hx4y             3.247390     102.318080
                         17       1    1hx4z             3.247390     102.318080
                         17       1    1hx3y2            3.247390     156.293448
                         17       1    1hx3yz            3.247390     270.708193
                         17       1    1hx3z2            3.247390     156.293448
                         17       1    1hx2y3            3.247390     156.293448
                         17       1    1hx2y2z           3.247390     349.482775
                         17       1    1hx2yz2           3.247390     349.482775
                         17       1    1hx2z3            3.247390     156.293448
                         17       1    1hxy4             3.247390     102.318080
                         17       1    1hxy3z            3.247390     270.708193
                         17       1    1hxy2z2           3.247390     349.482775
                         17       1    1hxyz3            3.247390     270.708193
                         17       1    1hxz4             3.247390     102.318080
                         17       1    1hy5              3.247390      34.106027
                         17       1    1hy4z             3.247390     102.318080
                         17       1    1hy3z2            3.247390     156.293448
                         17       1    1hy2z3            3.247390     156.293448
                         17       1    1hyz4             3.247390     102.318080
                         17       1    1hz5              3.247390      34.106027

                         18       1    1dx2              3.858160      17.481346
                         18       1    1dxy              3.858160      30.278579
                         18       1    1dxz              3.858160      30.278579
                         18       1    1dy2              3.858160      17.481346
                         18       1    1dyz              3.858160      30.278579
                         18       1    1dz2              3.858160      17.481346

                         19       1    1s                4.922970       2.355486

                         20       1    1px               5.974580      13.314483
                         20       1    1py               5.974580      13.314483
                         20       1    1pz               5.974580      13.314483

                         21       1    1s               23.321500       7.563581

       Atomic covalent radius [Angstrom]:                                  0.320

       Atomic van der Waals radius [Angstrom]:                             1.090

     The atoms of this atomic kind are PAW atoms (GAPW):
       Hard Gaussian function radius:                                      1.200
       Rho0 radius:                                                        1.200
       Maximum GTO radius used for PAW projector construction:            24.566

     GAPW Soft Basis Set                                            cc-pV5Z_soft

       Number of orbital shell sets:                                           5
       Number of orbital shells:                                              15
       Number of primitive Cartesian functions:                               15
       Number of Cartesian basis functions:                                   70
       Number of spherical basis functions:                                   55
       Norm type:                                                              2

       Normalised Cartesian orbitals:

                        Set   Shell   Orbital            Exponent    Coefficient

                          1       1    1s                3.905000       0.000000
                                                         1.283000       0.859172
                                                         0.465500       0.000000
                                                         0.181100       0.000000
                                                         0.072790       0.000000

                          1       2    2s                3.905000       0.000000
                                                         1.283000       0.000000
                                                         0.465500       0.401652
                                                         0.181100       0.000000
                                                         0.072790       0.000000

                          1       3    3s                3.905000       0.088850
                                                         1.283000       0.122259
                                                         0.465500       0.132938
                                                         0.181100       0.086318
                                                         0.072790       0.017622

                          1       4    4s                3.905000       0.000000
                                                         1.283000       0.000000
                                                         0.465500       0.000000
                                                         0.181100       0.197856
                                                         0.072790       0.000000

                          1       5    5s                3.905000       0.000000
                                                         1.283000       0.000000
                                                         0.465500       0.000000
                                                         0.181100       0.000000
                                                         0.072790       0.099877

                          2       1    1px               4.516000       9.383881
                                                         1.712000       0.000000
                                                         0.649000       0.000000
                                                         0.246000       0.000000
                          2       1    1py               4.516000       9.383881
                                                         1.712000       0.000000
                                                         0.649000       0.000000
                                                         0.246000       0.000000
                          2       1    1pz               4.516000       9.383881
                                                         1.712000       0.000000
                                                         0.649000       0.000000
                                                         0.246000       0.000000

                          2       2    2px               4.516000       0.000000
                                                         1.712000       2.791385
                                                         0.649000       0.000000
                                                         0.246000       0.000000
                          2       2    2py               4.516000       0.000000
                                                         1.712000       2.791385
                                                         0.649000       0.000000
                                                         0.246000       0.000000
                          2       2    2pz               4.516000       0.000000
                                                         1.712000       2.791385
                                                         0.649000       0.000000
                                                         0.246000       0.000000

                          2       3    3px               4.516000       0.000000
                                                         1.712000       0.000000
                                                         0.649000       0.830321
                                                         0.246000       0.000000
                          2       3    3py               4.516000       0.000000
                                                         1.712000       0.000000
                                                         0.649000       0.830321
                                                         0.246000       0.000000
                          2       3    3pz               4.516000       0.000000
                                                         1.712000       0.000000
                                                         0.649000       0.830321
                                                         0.246000       0.000000

                          2       4    4px               4.516000       0.000000
                                                         1.712000       0.000000
                                                         0.649000       0.000000
                                                         0.246000       0.246950
                          2       4    4py               4.516000       0.000000
                                                         1.712000       0.000000
                                                         0.649000       0.000000
                                                         0.246000       0.246950
                          2       4    4pz               4.516000       0.000000
                                                         1.712000       0.000000
                                                         0.649000       0.000000
                                                         0.246000       0.246950

                          3       1    1dx2              2.950000      10.929442
                                                         1.206000       0.000000
                                                         0.493000       0.000000
                          3       1    1dxy              2.950000      18.930349
                                                         1.206000       0.000000
                                                         0.493000       0.000000
                          3       1    1dxz              2.950000      18.930349
                                                         1.206000       0.000000
                                                         0.493000       0.000000
                          3       1    1dy2              2.950000      10.929442
                                                         1.206000       0.000000
                                                         0.493000       0.000000
                          3       1    1dyz              2.950000      18.930349
                                                         1.206000       0.000000
                                                         0.493000       0.000000
                          3       1    1dz2              2.950000      10.929442
                                                         1.206000       0.000000
                                                         0.493000       0.000000

                          3       2    2dx2              2.950000       0.000000
                                                         1.206000       2.284374
                                                         0.493000       0.000000
                          3       2    2dxy              2.950000       0.000000
                                                         1.206000       3.956652
                                                         0.493000       0.000000
                          3       2    2dxz              2.950000       0.000000
                                                         1.206000       3.956652
                                                         0.493000       0.000000
                          3       2    2dy2              2.950000       0.000000
                                                         1.206000       2.284374
                                                         0.493000       0.000000
                          3       2    2dyz              2.950000       0.000000
                                                         1.206000       3.956652
                                                         0.493000       0.000000
                          3       2    2dz2              2.950000       0.000000
                                                         1.206000       2.284374
                                                         0.493000       0.000000

                          3       3    3dx2              2.950000       0.000000
                                                         1.206000       0.000000
                                                         0.493000       0.477410
                          3       3    3dxy              2.950000       0.000000
                                                         1.206000       0.000000
                                                         0.493000       0.826898
                          3       3    3dxz              2.950000       0.000000
                                                         1.206000       0.000000
                                                         0.493000       0.826898
                          3       3    3dy2              2.950000       0.000000
                                                         1.206000       0.000000
                                                         0.493000       0.477410
                          3       3    3dyz              2.950000       0.000000
                                                         1.206000       0.000000
                                                         0.493000       0.826898
                          3       3    3dz2              2.950000       0.000000
                                                         1.206000       0.000000
                                                         0.493000       0.477410

                          4       1    1fx3              2.506000      11.632200
                                                         0.875000       0.000000
                          4       1    1fx2y             2.506000      26.010389
                                                         0.875000       0.000000
                          4       1    1fx2z             2.506000      26.010389
                                                         0.875000       0.000000
                          4       1    1fxy2             2.506000      26.010389
                                                         0.875000       0.000000
                          4       1    1fxyz             2.506000      45.051316
                                                         0.875000       0.000000
                          4       1    1fxz2             2.506000      26.010389
                                                         0.875000       0.000000
                          4       1    1fy3              2.506000      11.632200
                                                         0.875000       0.000000
                          4       1    1fy2z             2.506000      26.010389
                                                         0.875000       0.000000
                          4       1    1fyz2             2.506000      26.010389
                                                         0.875000       0.000000
                          4       1    1fz3              2.506000      11.632200
                                                         0.875000       0.000000

                          4       2    2fx3              2.506000       0.000000
                                                         0.875000       1.090116
                          4       2    2fx2y             2.506000       0.000000
                                                         0.875000       2.437573
                          4       2    2fx2z             2.506000       0.000000
                                                         0.875000       2.437573
                          4       2    2fxy2             2.506000       0.000000
                                                         0.875000       2.437573
                          4       2    2fxyz             2.506000       0.000000
                                                         0.875000       4.222000
                          4       2    2fxz2             2.506000       0.000000
                                                         0.875000       2.437573
                          4       2    2fy3              2.506000       0.000000
                                                         0.875000       1.090116
                          4       2    2fy2z             2.506000       0.000000
                                                         0.875000       2.437573
                          4       2    2fyz2             2.506000       0.000000
                                                         0.875000       2.437573
                          4       2    2fz3              2.506000       0.000000
                                                         0.875000       1.090116

                          5       1    1gx4              2.358000      11.774186
                          5       1    1gx3y             2.358000      31.151567
                          5       1    1gx3z             2.358000      31.151567
                          5       1    1gx2y2            2.358000      40.216500
                          5       1    1gx2yz            2.358000      69.657021
                          5       1    1gx2z2            2.358000      40.216500
                          5       1    1gxy3             2.358000      31.151567
                          5       1    1gxy2z            2.358000      69.657021
                          5       1    1gxyz2            2.358000      69.657021
                          5       1    1gxz3             2.358000      31.151567
                          5       1    1gy4              2.358000      11.774186
                          5       1    1gy3z             2.358000      31.151567
                          5       1    1gy2z2            2.358000      40.216500
                          5       1    1gyz3             2.358000      31.151567
                          5       1    1gz4              2.358000      11.774186

     AE Potential information for                                            ALL

       Description:                                       All-electron potential
                                          Krack, Parrinello, PCCP 2, 2105 (2000)

       Gaussian exponent of the core charge distribution:              12.500000
       Electronic configuration (s p d ...):                           1   0   0

  2. Atomic kind: C                                     Number of atoms:       3

     Orbital Basis Set                                                   cc-pV5Z

       Number of orbital shell sets:                                           6
       Number of orbital shells:                                              21
       Number of primitive Cartesian functions:                               32
       Number of Cartesian basis functions:                                  126
       Number of spherical basis functions:                                   91
       Norm type:                                                              2

       Normalised Cartesian orbitals:

                        Set   Shell   Orbital            Exponent    Coefficient

                          1       1    1px             101.800000       0.000000
                                                        24.040000       0.000000
                                                         7.571000       0.000000
                                                         2.732000       0.000000
                                                         1.085000       1.578437
                                                         0.449600       0.000000
                                                         0.187600       0.000000
                                                         0.076060       0.000000
                          1       1    1py             101.800000       0.000000
                                                        24.040000       0.000000
                                                         7.571000       0.000000
                                                         2.732000       0.000000
                                                         1.085000       1.578437
                                                         0.449600       0.000000
                                                         0.187600       0.000000
                                                         0.076060       0.000000
                          1       1    1pz             101.800000       0.000000
                                                        24.040000       0.000000
                                                         7.571000       0.000000
                                                         2.732000       0.000000
                                                         1.085000       1.578437
                                                         0.449600       0.000000
                                                         0.187600       0.000000
                                                         0.076060       0.000000

                          1       2    2px             101.800000       0.000000
                                                        24.040000       0.000000
                                                         7.571000       0.000000
                                                         2.732000       0.000000
                                                         1.085000       0.000000
                                                         0.449600       0.524775
                                                         0.187600       0.000000
                                                         0.076060       0.000000
                          1       2    2py             101.800000       0.000000
                                                        24.040000       0.000000
                                                         7.571000       0.000000
                                                         2.732000       0.000000
                                                         1.085000       0.000000
                                                         0.449600       0.524775
                                                         0.187600       0.000000
                                                         0.076060       0.000000
                          1       2    2pz             101.800000       0.000000
                                                        24.040000       0.000000
                                                         7.571000       0.000000
                                                         2.732000       0.000000
                                                         1.085000       0.000000
                                                         0.449600       0.524775
                                                         0.187600       0.000000
                                                         0.076060       0.000000

                          1       3    3px             101.800000       0.410679
                                                        24.040000       0.529315
                                                         7.571000       0.566912
                                                         2.732000       0.520714
                                                         1.085000       0.381402
                                                         0.449600       0.195188
                                                         0.187600       0.062335
                                                         0.076060       0.007491
                          1       3    3py             101.800000       0.410679
                                                        24.040000       0.529315
                                                         7.571000       0.566912
                                                         2.732000       0.520714
                                                         1.085000       0.381402
                                                         0.449600       0.195188
                                                         0.187600       0.062335
                                                         0.076060       0.007491
                          1       3    3pz             101.800000       0.410679
                                                        24.040000       0.529315
                                                         7.571000       0.566912
                                                         2.732000       0.520714
                                                         1.085000       0.381402
                                                         0.449600       0.195188
                                                         0.187600       0.062335
                                                         0.076060       0.007491

                          1       4    4px             101.800000       0.000000
                                                        24.040000       0.000000
                                                         7.571000       0.000000
                                                         2.732000       0.000000
                                                         1.085000       0.000000
                                                         0.449600       0.000000
                                                         0.187600       0.175987
                                                         0.076060       0.000000
                          1       4    4py             101.800000       0.000000
                                                        24.040000       0.000000
                                                         7.571000       0.000000
                                                         2.732000       0.000000
                                                         1.085000       0.000000
                                                         0.449600       0.000000
                                                         0.187600       0.175987
                                                         0.076060       0.000000
                          1       4    4pz             101.800000       0.000000
                                                        24.040000       0.000000
                                                         7.571000       0.000000
                                                         2.732000       0.000000
                                                         1.085000       0.000000
                                                         0.449600       0.000000
                                                         0.187600       0.175987
                                                         0.076060       0.000000

                          1       5    5px             101.800000       0.000000
                                                        24.040000       0.000000
                                                         7.571000       0.000000
                                                         2.732000       0.000000
                                                         1.085000       0.000000
                                                         0.449600       0.000000
                                                         0.187600       0.000000
                                                         0.076060       0.056936
                          1       5    5py             101.800000       0.000000
                                                        24.040000       0.000000
                                                         7.571000       0.000000
                                                         2.732000       0.000000
                                                         1.085000       0.000000
                                                         0.449600       0.000000
                                                         0.187600       0.000000
                                                         0.076060       0.056936
                          1       5    5pz             101.800000       0.000000
                                                        24.040000       0.000000
                                                         7.571000       0.000000
                                                         2.732000       0.000000
                                                         1.085000       0.000000
                                                         0.449600       0.000000
                                                         0.187600       0.000000
                                                         0.076060       0.056936

                          2       1    1s            96770.000000       0.097759
                                                     14500.000000       0.178933
                                                      3300.000000       0.310310
                                                       935.800000       0.504412
                                                       306.200000       0.775182
                                                       111.300000       1.106343
                                                        43.900000       1.416119
                                                        18.400000       1.521197
                                                         8.054000       1.222561
                                                         3.637000       0.551732
                                                         1.656000       0.080804
                                                         0.633300       0.001180
                                                         0.254500       0.000129
                                                         0.101900       0.000004

                          2       2    2s            96770.000000       0.000000
                                                     14500.000000       0.000000
                                                      3300.000000       0.000000
                                                       935.800000       0.000000
                                                       306.200000       0.000000
                                                       111.300000       0.000000
                                                        43.900000       0.000000
                                                        18.400000       0.000000
                                                         8.054000       0.000000
                                                         3.637000       0.000000
                                                         1.656000       1.040412
                                                         0.633300       0.000000
                                                         0.254500       0.000000
                                                         0.101900       0.000000

                          2       3    3s            96770.000000       0.000000
                                                     14500.000000       0.000000
                                                      3300.000000       0.000000
                                                       935.800000       0.000000
                                                       306.200000       0.000000
                                                       111.300000       0.000000
                                                        43.900000       0.000000
                                                        18.400000       0.000000
                                                         8.054000       0.000000
                                                         3.637000       0.000000
                                                         1.656000       0.000000
                                                         0.633300       0.505961
                                                         0.254500       0.000000
                                                         0.101900       0.000000

                          2       4    4s            96770.000000       0.000000
                                                     14500.000000       0.000000
                                                      3300.000000       0.000000
                                                       935.800000       0.000000
                                                       306.200000       0.000000
                                                       111.300000       0.000000
                                                        43.900000       0.000000
                                                        18.400000       0.000000
                                                         8.054000       0.000000
                                                         3.637000       0.000000
                                                         1.656000       0.000000
                                                         0.633300       0.000000
                                                         0.254500       0.255374
                                                         0.101900       0.000000

                          2       5    5s            96770.000000      -0.019552
                                                     14500.000000      -0.038612
                                                      3300.000000      -0.066096
                                                       935.800000      -0.108166
                                                       306.200000      -0.166263
                                                       111.300000      -0.243268
                                                        43.900000      -0.320591
                                                        18.400000      -0.379911
                                                         8.054000      -0.363992
                                                         3.637000      -0.270602
                                                         1.656000      -0.025640
                                                         0.633300       0.176585
                                                         0.254500       0.142687
                                                         0.101900       0.029320

                          2       6    6s            96770.000000       0.000000
                                                     14500.000000       0.000000
                                                      3300.000000       0.000000
                                                       935.800000       0.000000
                                                       306.200000       0.000000
                                                       111.300000       0.000000
                                                        43.900000       0.000000
                                                        18.400000       0.000000
                                                         8.054000       0.000000
                                                         3.637000       0.000000
                                                         1.656000       0.000000
                                                         0.633300       0.000000
                                                         0.254500       0.000000
                                                         0.101900       0.128541

                          3       1    1dx2              3.134000      12.150179
                                                         1.233000       0.000000
                                                         0.485000       0.000000
                                                         0.191000       0.000000
                          3       1    1dxy              3.134000      21.044728
                                                         1.233000       0.000000
                                                         0.485000       0.000000
                                                         0.191000       0.000000
                          3       1    1dxz              3.134000      21.044728
                                                         1.233000       0.000000
                                                         0.485000       0.000000
                                                         0.191000       0.000000
                          3       1    1dy2              3.134000      12.150179
                                                         1.233000       0.000000
                                                         0.485000       0.000000
                                                         0.191000       0.000000
                          3       1    1dyz              3.134000      21.044728
                                                         1.233000       0.000000
                                                         0.485000       0.000000
                                                         0.191000       0.000000
                          3       1    1dz2              3.134000      12.150179
                                                         1.233000       0.000000
                                                         0.485000       0.000000
                                                         0.191000       0.000000

                          3       2    2dx2              3.134000       0.000000
                                                         1.233000       2.374624
                                                         0.485000       0.000000
                                                         0.191000       0.000000
                          3       2    2dxy              3.134000       0.000000
                                                         1.233000       4.112969
                                                         0.485000       0.000000
                                                         0.191000       0.000000
                          3       2    2dxz              3.134000       0.000000
                                                         1.233000       4.112969
                                                         0.485000       0.000000
                                                         0.191000       0.000000
                          3       2    2dy2              3.134000       0.000000
                                                         1.233000       2.374624
                                                         0.485000       0.000000
                                                         0.191000       0.000000
                          3       2    2dyz              3.134000       0.000000
[...]
 https://doi.org/10.1039/b001167n

 G. Lippert, J. Hutter, M. Parrinello.
 Theor. Chem. Acc. 103, 124-140 (1999).
 The Gaussian and augmented-plane-wave density functional method for ab initio 
 molecular dynamics simulations.
 https://doi.org/10.1007/s002140050523

 J. P. Perdew, K. Burke, M. Ernzerhof.
 Phys. Rev. Lett. 77, 3865-3868 (1996).
 Generalized gradient approximation made simple.
 https://doi.org/10.1103/PhysRevLett.77.3865


 -------------------------------------------------------------------------------
 -                                                                             -
 -                                T I M I N G                                  -
 -                                                                             -
 -------------------------------------------------------------------------------
 SUBROUTINE                       CALLS  ASD         SELF TIME        TOTAL TIME
                                MAXIMUM       AVERAGE  MAXIMUM  AVERAGE  MAXIMUM
 CP2K                                 1  1.0    0.040    0.060  792.723  792.723
 qs_energies                          1  2.0    0.001    0.001  791.025  791.025
 integrate_four_center              432  9.8   19.079   29.260  433.065  434.644
 scf_env_do_scf                       1  3.0    0.000    0.000  404.901  404.907
 scf_env_do_scf_inner_loop           72  4.0    0.002    0.005  404.901  404.907
 qs_energies_properties               1  3.0    0.000    0.000  383.076  383.076
 tddfpt                               1  4.0    0.000    0.000  383.076  383.076
 tddfpt_energies                      1  5.0    0.000    0.001  383.019  383.019
 tddfpt_davidson_solver               1  6.0    0.002    0.004  378.385  378.385
 tddfpt_compute_Aop_evects            9  7.0    0.000    0.000  374.960  374.961
 qs_ks_update_qs_env                 72  5.0    0.000    0.001  373.057  373.144
 rebuild_ks_matrix                   72  6.0    0.000    0.000  373.045  373.132
 qs_ks_build_kohn_sham_matrix        72  7.0    0.011    0.012  373.044  373.132
 integrate_four_center_main         432 10.8    3.148  111.483  138.586  364.145
 integrate_four_center_bin        83766 11.9  135.438  361.900  135.438  361.900
 hfx_ks_matrix                       72  8.0    0.003    0.003  296.224  296.706
 mp_sync                           2290 11.5  222.160  248.975  222.160  248.975
 fhxc_kernel                          9  8.0    0.008    0.009  231.281  231.282
 tddfpt_apply_hfx                     9  8.0    0.004    0.005  142.037  142.037
 tddft_hfx_matrix                   360  9.0    0.010    0.012  136.856  137.959
 pw_poisson_solve                   252  9.4    1.464    1.590   97.682   98.703
 fft_wrap_pw1pw2                   5126 11.1    0.082    0.117   93.652   95.101
 fft_wrap_pw1pw2_250               3608 12.1    2.491    2.867   89.226   90.767
 tddfpt_apply_coulomb               180  9.0    0.003    0.005   88.353   89.376
 fft3d_ps                          5126 13.1   23.865   25.687   82.896   84.648
 mp_alltoall_z22v                  5126 15.1   53.081   63.265   53.081   63.265
 ps_wavelet_solve                   252 10.4   25.413   36.816   61.309   61.508
 qs_rho_update_rho_low              254  7.8    0.003    0.003   59.498   59.507
 integrate_v_rspace                 252  9.0    0.005    0.007   54.404   54.962
 calculate_rho_elec                 254  8.8    0.554    0.595   53.798   53.807
 density_rs2pw                      254  9.8    0.014    0.017   37.780   42.055
 prepare_gapw_den                   253  8.7    0.005    0.006   41.343   41.506
 mp_alltoall_d11v                 15932 11.6   35.542   39.707   35.542   39.707
 x_to_yz                           2092 13.7    2.448    2.802   37.234   39.374
 transfer_rs2pw                    1270 10.8    0.034    0.054   31.071   35.305
 xc_pw_derive                      1515 11.0    0.014    0.018   33.024   34.546
 mp_alltoall_d54                    252 11.4   13.715   34.400   13.715   34.400
 rs_gather_matrices                 252 10.0    0.028    0.074   29.269   30.527
 mp_waitall_1                    512514 13.2   25.550   30.318   25.550   30.318
 grid_integrate_task_list           252 10.0    1.224   29.863    1.224   29.863
 mp_waitany                       63798 12.8   24.788   29.088   24.788   29.088
 tddfpt_apply_xc_analytic           180  9.0    0.126    0.165   28.602   28.745
 grid_collocate_task_list           254  9.8   14.510   27.662   14.510   27.662
 calculate_rho_atom                 506  9.7    4.388   27.077    4.388   27.077
 calc_screening_functions             1 10.0   23.831   24.786   25.170   26.122
 yz_to_x                           2022 14.5    1.833    2.248   19.954   25.797
 transfer_rs2pw_250                 508 11.8    4.229    4.718   18.288   25.384
 mp_sum_dv                        38521  8.8   23.810   24.619   23.810   24.619
 mp_alltoall_d45                    253 11.4   22.003   24.493   22.003   24.493
 potential_pw2rs                    252 10.0    0.052    0.071   23.905   24.453
 xc_pw_divergence                   252 10.7    0.007    0.009   22.157   23.421
 gaVxcgb_GC                         252  9.7    0.550   22.928    0.550   22.928
 transfer_pw2rs                    1261 10.9    0.018    0.022   21.407   21.611
 calculate_xc_2nd_deriv_atom        180  9.0    0.115    2.424    0.533   19.014
 xc_calc_2nd_deriv_analytical       540 10.1    0.876    1.037   16.764   16.851
 sum_up_and_integrate                72  8.0    0.001    0.001   15.503   16.038
 mp_sum_d                         13270  7.3   10.843   14.092   10.843   14.092
 cp_dbcsr_sm_fm_multiply           1126  8.6    0.025    0.028   10.596   13.855
 integrate_four_center_getP         432 10.8    0.367    0.397   13.535   13.629
 integrate_four_center_dist_KS      432 10.8    0.306    0.342   13.266   13.298
 qs_vxc_create                       72  8.0    0.001    0.001   13.083   13.083
 xc_vxc_pw_create                    72  9.0    0.201    0.233   13.082   13.082
 integrate_vhg0_rspace              252  9.4    1.490    1.604   12.876   12.957
 mp_isendrecv_dv                 294120 12.3    4.887   12.881    4.887   12.881
 put_rho0_on_grid                   253  9.7    0.583    0.741   11.963   12.124
 transfer_pw2rs_250                 505 11.7    3.823    4.176   11.682   12.036
 transfer_rs2pw_90                  254 11.8    0.661    0.794    5.593   11.122
 mp_sum_dm                         8465 10.0   10.142   10.479   10.142   10.479
 dbcsr_complete_redistribute       3753 10.5    0.204    0.391    7.166   10.427
 cp_fm_syevd                        123  7.2    0.001    0.001    9.678    9.692
 cp_fm_redistribute_end             123  8.2    4.821    9.499    4.832    9.506
 cp_fm_syevd_base                   123  8.2    4.663    9.344    4.663    9.344
 qs_scf_new_mos                      72  5.0    0.001    0.001    9.125    9.170
 copy_fm_to_dbcsr                  2531  9.6    0.013    0.014    5.055    8.321
 eigensolver_symm                    72  6.0    0.003    0.003    7.991    8.003
 calculate_vxc_atom                  72  8.0    0.038    0.482    7.067    7.068
 xc_rho_set_and_dset_create          73 10.0    0.167    0.205    6.121    6.494
 mp_alltoall_i22                   4974 11.4    2.640    6.134    2.640    6.134
 calculate_rho_atom_coeff           254  8.8    0.174    0.479    5.698    5.706
 transfer_rs2pw_30                  254 11.8    2.395    2.510    5.502    5.667
 gspace_mixing                       71  5.0    0.154    0.165    5.598    5.599
 transfer_pw2rs_30                  252 12.0    2.311    2.517    5.259    5.550
 copy_dbcsr_to_fm                  1220  9.3    0.017    0.018    4.770    5.225
 dbcsr_multiply_generic            1558 10.3    0.077    0.087    3.889    4.610
 mp_sendrecv_dv                  109220 12.8    4.146    4.364    4.146    4.364
 broyden_mixing                      71  6.0    3.864    3.988    4.006    4.062
 pw_scatter_p                      2596 12.8    3.327    3.925    3.327    3.925
 tddfpt_print_nto_analysis            1  6.0    0.003    0.003    3.906    3.907
 cp_dbcsr_sm_fm_multiply_core      1126  9.6    0.003    0.004    2.804    3.482
 pw_gather_p                       2530 13.4    2.792    3.317    2.792    3.317
 transfer_pw2rs_90                  252 12.0    0.637    0.718    2.775    3.271
 cp_fm_geeig                         20  7.0    0.001    0.001    3.256    3.258
 multiply_cannon                   1558 11.3    0.197    0.205    2.503    3.251
 cp2k_distribution_to_z_slices      252 10.4    1.172    1.286    2.619    3.196
 rs_grid_zero                      1263 11.9    3.107    3.190    3.107    3.190
 fft_wrap_pw1pw2_90                 506 11.9    0.076    0.120    2.683    3.019
 dbcsr_desymmetrize_deep           1221 10.3    0.035    0.046    2.547    3.001
 mp_alltoall_i11v                 12480 11.5    2.787    2.825    2.787    2.825
 powell_optimize                 933491 11.0    2.321    2.713    2.321    2.713
 pw_derive                         2271 11.8    2.491    2.664    2.491    2.664
 multiply_cannon_loop              1558 12.3    0.367    0.394    1.924    2.643
 qs_energies_init_hamiltonians        1  3.0    0.000    0.000    2.554    2.554
 build_core_hamiltonian_matrix        1  4.0    0.000    0.000    2.541    2.541
 overlap_condnum                      1  5.0    0.000    0.000    2.526    2.539
 Vh_1c_gg_integrals                 252  9.4    0.068    1.780    1.905    2.496
 arnoldi_conjugate_gradient           5  6.0    0.048    0.058    2.315    2.315
 calculate_rho0_atom                506  9.7    1.989    2.236    1.989    2.236
 tddfpt_orthonormalize_psi1_psi      10  6.9    0.024    0.025    2.001    2.002
 cp_dbcsr_plus_fm_fm_t              252  8.4    0.004    0.005    1.912    1.983
 pw_copy                           3425 11.0    1.734    1.874    1.734    1.874
 transfer_pw2rs_10                  252 12.0    0.604    0.743    1.674    1.751
 transfer_rs2pw_10                  254 11.8    0.615    0.660    1.655    1.696
 calc_pair_dist_radii                 1 10.0    0.504    0.522    1.486    1.673
 mp_sum_l                          5970 10.6    1.152    1.672    1.152    1.672
 tddfpt_apply_energy_diff             9  8.0    0.001    0.001    1.642    1.642
 mp_irecv_dm3                      9114 12.8    0.561    1.614    0.561    1.614
 xc_functional_eval                 577 10.9    0.001    0.003    1.128    1.545
 pbe_lda_eval                       577 11.9    1.128    1.543    1.128    1.543
 dbcsr_sym_matrix_vector_mult      7145  7.0    0.112    0.126    1.208    1.530
 pw_poisson_set                     253 10.4    0.006    0.007    1.504    1.527
 integrate_four_center_load         432 10.8    0.001    0.002    0.968    1.467
 hfx_load_balance                     1 11.0    0.000    0.000    0.967    1.465
 hfx_load_balance_range               1 12.0    0.000    0.000    0.945    1.444
 multiply_cannon_metrocomm3       56088 13.3    0.092    0.096    0.513    1.404
 pw_copy_to_array                  2530 13.4    1.186    1.403    1.186    1.403
 tddfpt_compute_residual_vects        8  7.0    0.001    0.001    1.305    1.305
 create_qs_kind_set                   1  2.0    0.000    0.000    1.296    1.296
 read_qs_kind                         2  3.0    0.738    0.751    1.295    1.296
 mp_isend_dm3                      9114 12.8    0.634    1.296    0.634    1.296
 mp_isend_dv                     165014 13.8    0.770    1.216    0.770    1.216
 hybrid_alltoall_any               4337 13.5    0.040    0.092    1.059    1.203
 mp_alltoall_z11v                  1012 14.9    1.131    1.176    1.131    1.176
 fft_wrap_pw1pw2_30                 506 11.9    0.014    0.016    1.105    1.150
 pw_integral_ab_c1d_c1d_gs          252 10.4    0.819    0.824    1.046    1.140
 make_m2s                          3116 11.3    0.066    0.078    0.948    1.119
 pw_axpy                           2708 10.8    0.936    1.071    0.936    1.071
 update_ks_atom                     252  8.7    0.128    0.451    0.719    1.012
 pw_copy_from_array                2596 12.8    0.782    0.970    0.782    0.970
 parallel_gemm_fm                  1653  8.3    0.002    0.002    0.927    0.949
 parallel_gemm_fm_gemm             1653  9.3    0.002    0.002    0.925    0.946
 cp_fm_gemm                        1653 10.3    0.923    0.944    0.923    0.944
 make_images                       3116 12.3    0.186    0.235    0.774    0.941
 mp_max_i                           723  5.1    0.368    0.929    0.368    0.929
 pw_zero                           2778 10.6    0.801    0.916    0.801    0.916
 yz_to_xz                           504 14.0    0.045    0.051    0.773    0.810
 multiply_cannon_metrocomm1       56088 13.3    0.065    0.068    0.348    0.790
 dbcsr_rep_row_to_rep_col_vec      7145  8.0    0.037    0.052    0.271    0.696
 dbcsr_add_d                      10772  7.0    0.010    0.012    0.090    0.637
 calculate_dm_sparse                 72  6.0    0.001    0.001    0.575    0.632
 mp_bcast_dm                       5544  9.7    0.591    0.631    0.591    0.631
 dbcsr_add_anytype                10772  8.0    0.012    0.082    0.080    0.626
 rs_scatter_matrices                254  9.8    0.003    0.013    0.590    0.616
 pw_poisson_rebuild                 252 10.4    0.000    0.000    0.582    0.605
 ps_wavelet_create                    1 10.0    0.000    0.000    0.581    0.605
 RS_z_slice_distribution              1 11.0    0.500    0.568    0.581    0.605
 dbcsr_finalize                   18430 11.3    0.047    0.166    0.217    0.591
 parser_read_line                156650  4.0    0.053    0.057    0.557    0.569
 fft_wrap_pw1pw2_10                 506 11.9    0.005    0.005    0.556    0.565
 multiply_cannon_metrocomm4       52972 13.3    0.156    0.168    0.324    0.561
 cp_fm_cholesky_decompose            20  8.0    0.554    0.554    0.554    0.554
 parser_read_line_low               168  5.0    0.047    0.239    0.505    0.516
 dbcsr_col_vec_to_rep_row          7145  8.0    0.050    0.069    0.341    0.511
 offload_free_buffer                260 10.2    0.430    0.503    0.430    0.503
 broadcast_input_information        168  6.0    0.114    0.124    0.458    0.486
 cp_fm_triangular_multiply           60  8.0    0.482    0.483    0.482    0.483
 cp_fm_triangular_invert             20  8.0    0.451    0.452    0.451    0.452
 xz_to_yz                           508 13.8    0.030    0.035    0.434    0.442
 mp_rank_compare                   5126 14.1    0.419    0.437    0.419    0.437
 init_scf_run                         1  3.0    0.000    0.000    0.433    0.434
 cp_fm_trace_a1b1t1_aa            16500  8.0    0.077    0.084    0.413    0.416
 tddfpt_construct_ground_state_       1  6.0    0.000    0.000    0.407    0.409
 multiply_cannon_multrec          56088 13.3    0.087    0.340    0.095    0.350
 mp_irecv_dv                     164584 13.8    0.151    0.344    0.151    0.344
 mp_allgather_i34                  1558 12.3    0.274    0.336    0.274    0.336
 scf_env_initial_rho_setup            1  4.0    0.000    0.000    0.329    0.330
 make_images_sizes                 3116 13.3    0.004    0.004    0.309    0.325
 mp_alltoall_i44                   3116 14.3    0.305    0.322    0.305    0.322
 multiply_cannon_metrocomm2       51414 13.3    0.153    0.161    0.278    0.319
 dbcsr_sym_matrix_vector_mult_l    7145  8.0    0.044    0.299    0.066    0.318
 dbcsr_merge_all                  16444 12.3    0.091    0.234    0.125    0.317
 prepare_dr1dr                      540 11.1    0.275    0.316    0.275    0.316
 mp_bcast_dv                       7268  9.0    0.141    0.311    0.141    0.311
 qs_init_subsys                       1  2.0    0.006    0.006    0.303    0.303
 scale_and_distribute               504 11.4    0.260    0.280    0.260    0.280
 mp_cart_sub                       2444 11.3    0.277    0.279    0.277    0.279
 make_images_data                  3116 13.3    0.039    0.054    0.119    0.266
 cp_fm_symm                          72  7.0    0.251    0.261    0.251    0.261
 mp_cart_create                    1729 10.8    0.239    0.257    0.241    0.259
 qs_env_setup                         1  3.0    0.000    0.000    0.228    0.247
 qs_env_rebuild_pw_env                2  3.5    0.000    0.000    0.227    0.245
 pw_env_rebuild                       1  5.0    0.001    0.001    0.227    0.245
 dbcsr_create_new                 60898 10.5    0.176    0.189    0.228    0.240
 dbcsr_iterator_start            109038  9.6    0.128    0.186    0.154    0.234
 mp_bcast_i_src                     672  7.0    0.148    0.233    0.148    0.233
 mp_bcast_am_src                    168  7.0    0.170    0.213    0.189    0.231
 dbcsr_copy                       32516  7.9    0.115    0.130    0.198    0.225
 cp_fm_redistribute_start           123  8.2    0.141    0.151    0.182    0.205
 xc_2nd_deriv_of_r                  360 10.0    0.001    0.028    0.008    0.159
 tddfpt_compute_ritz_vects            9  7.0    0.007    0.008    0.157    0.157
 pw_grid_setup                        4  6.0    0.000    0.000    0.138    0.157
 pw_grid_setup_internal               4  7.0    0.003    0.004    0.138    0.157
 dbcsr_iterator_stop             109038  9.6    0.094    0.126    0.114    0.152
 dbcsr_special_finalize            7790 13.3    0.031    0.034    0.090    0.134
 pw_scale                           648  9.5    0.116    0.133    0.116    0.133
 dbcsr_work_create                25455 12.4    0.038    0.074    0.059    0.118
 create_kernel_env                    1  6.0    0.000    0.000    0.106    0.116
 xc_prep_2nd_deriv                    1  7.0    0.000    0.000    0.106    0.116
 cp_fm_power                          1  6.0    0.001    0.001    0.114    0.114
 cube_transpose_2                   508 13.8    0.010    0.011    0.102    0.112
 dbcsr_data_release              297149 11.7    0.069    0.101    0.069    0.101
 cube_transpose_1                   504 14.0    0.008    0.010    0.091    0.101
 tddfpt_orthogonalize_psi1_psi0      10  6.9    0.000    0.001    0.090    0.101
 dbcsr_work_destroy_all           25455 13.4    0.033    0.072    0.045    0.099
 create_fast_row_vec_access       14290  8.0    0.058    0.065    0.090    0.097
 create_fast_col_vec_access       14290  8.0    0.058    0.064    0.089    0.096
 copy_fm_to_dbcsr_bc               2531 10.6    0.029    0.032    0.086    0.094
 mp_isend_iv                     112582 14.3    0.086    0.094    0.086    0.094
 dbcsr_merge_single_wm             7790 14.3    0.039    0.048    0.048    0.092
 dbcsr_destroy                    46540 10.3    0.057    0.060    0.082    0.091
 mp_max_d                           234  8.3    0.059    0.090    0.059    0.090
 dbcsr_data_new                  166535 12.3    0.065    0.089    0.065    0.089
 self_consistency_check              72  5.0    0.000    0.000    0.055    0.087
 cp_sm_mix                           72  6.0    0.000    0.004    0.055    0.086
 compute_max_radius                   1  6.0    0.037    0.083    0.037    0.083
 -------------------------------------------------------------------------------

 The number of warnings for this run is : 1
 
 -------------------------------------------------------------------------------
  **** **** ******  **  PROGRAM ENDED AT                 2025-04-02 20:03:43.535
 ***** ** ***  *** **   PROGRAM RAN ON                              i03r02c03s11
 **    ****   ******    PROGRAM RAN BY                                   di38fab
 ***** **    ** ** **   PROGRAM PROCESS ID                               2304522
  **** **  *******  **  PROGRAM STOPPED IN /hppfs/scratch/04/di38fab/07_MOL_non_
                                           aug/05_MOL_non_aug/05_MOL/aUKBqsEOTmq
                                           69kFe5R_nOg/5k_set_final_qzvp/JAYDUI/
                                           cc-pV5Z/TDDFT
