SIRIUS 7.5.2, git hash: https://api.github.com/repos/electronic-structure/SIRIUS/git/ref/tags/v7.5.2
 DBCSR| CPU Multiplication driver                                           XSMM (U)
 DBCSR| Multrec recursion limit                                              512 (U)
 DBCSR| Multiplication stack size                                           1000 (D)
 DBCSR| Maximum elements for images                                    UNLIMITED (U)
 DBCSR| Multiplicative factor virtual images                                   1 (U)
 DBCSR| Use multiplication densification                                       T (D)
 DBCSR| Multiplication size stacks                                             3 (U)
 DBCSR| Use memory pool for CPU allocation                                     F (U)
 DBCSR| Number of 3D layers                                               SINGLE (U)
 DBCSR| Use MPI memory allocation                                              F (U)
 DBCSR| Use RMA algorithm                                                      F (U)
 DBCSR| Use Communication thread                                               T (U)
 DBCSR| Communication thread load                                             75 (D)
 DBCSR| MPI: My process id                                                     0
 DBCSR| MPI: Number of processes                                             192
 DBCSR| OMP: Current number of threads                                         4
 DBCSR| OMP: Max number of threads                                             4
 DBCSR| Split modifier for TAS multiplication algorithm                  1.0E+00 (U)


  **** **** ******  **  PROGRAM STARTED AT               2025-03-28 17:00:52.330
 ***** ** ***  *** **   PROGRAM STARTED ON                 n2cn0402.ab2021.local
 **    ****   ******    PROGRAM STARTED BY                              metdyn02
 ***** **    ** ** **   PROGRAM PROCESS ID                               1608514
  **** **  *******  **  PROGRAM STARTED IN /scratch/hpc-prf-metdyn/metdyn02_Remi
                                           /10_MOL/05_MOL/aUKBqsEOTmq69kFe5R_nOg
                                           /5k_set_final_qzvp/GODKEQ/SZVSR/TDDFT
                                           /1e-4

 CP2K| version string:                 CP2K version 2025.1 (Development Version)
 CP2K| source code revision number:                                  git:9754b87
 CP2K| cp2kflags: omp libint fftw3 libxc libgrpp elpa parallel scalapack mpi_f08
 CP2K|             cosma xsmm plumed2 spglib sirius libvori libbqb libvdwxc hdf5
 CP2K| is freely available from                            https://www.cp2k.org/
 CP2K| Program compiled at                          Sun Mar 23 00:44:01 CET 2025
 CP2K| Program compiled on                                              n2login1
 CP2K| Program compiled for                                                local
 CP2K| Data directory path    /opt/software/pc2/EB-SW/software/CP2K/2024.1-foss-
 CP2K| Input file name                                                    GW.inp

 GLOBAL| Force Environment number                                              1
 GLOBAL| Basis set file name            /scratch/hpc-prf-metdyn/metdyn02_Remi/BA
 GLOBAL| Potential file name            /pc2/groups/hpc-prf-metdyn/metdyn02_Remi
 GLOBAL| MM Potential file name                                     MM_POTENTIAL
 GLOBAL| Coordinate file name                                      __STD_INPUT__
 GLOBAL| Method name                                                        CP2K
 GLOBAL| Project name                                                       MoS2
 GLOBAL| Run type                                                         ENERGY
 GLOBAL| FFT library                                                       FFTW3
 GLOBAL| Diagonalization library                                            ELPA
 GLOBAL| DGEMM library                                                      BLAS
 GLOBAL| Minimum number of eigenvectors for ELPA usage                        16
 GLOBAL| Orthonormality check for eigenvectors                          DISABLED
 GLOBAL| Matrix multiplication library                                     COSMA
 GLOBAL| All-to-all communication in single precision                          F
 GLOBAL| FFTs using library dependent lengths                                  F
 GLOBAL| Grid backend                                                       AUTO
 GLOBAL| Global print level                                               MEDIUM
 GLOBAL| MPI I/O enabled                                                       T
 GLOBAL| Total number of message passing processes                           192
 GLOBAL| Number of threads for this process                                    4
 GLOBAL| This output is from process                                           0
 GLOBAL| OpenMP stack size per thread (OMP_STACKSIZE)                    default
 GLOBAL| CPU model name                          AMD EPYC 7763 64-Core Processor
 GLOBAL| CPUID                                                              1002

 MEMORY| system memory details [Kb]
 MEMORY|                        rank 0           min           max       average
 MEMORY| MemTotal            263899260     263899260     263899264     263899261
 MEMORY| MemFree             241924068     240879384     243653948     242607728
 MEMORY| Buffers                117584         53708        255432        176239
 MEMORY| Cached                7353280       6335956       8688808       7016479
 MEMORY| Slab                  2766596       2127612       2766596       2453220
 MEMORY| SReclaimable           948284        370356        948284        579360
 MEMORY| MemLikelyFree       250343216     250094936     250560488     250379807


 *** Fundamental physical constants (SI units) ***

 *** Literature: B. J. Mohr and B. N. Taylor,
 ***             CODATA recommended values of the fundamental physical
 ***             constants: 2006, Web Version 5.1
 ***             http://physics.nist.gov/constants

 Speed of light in vacuum [m/s]                             2.99792458000000E+08
 Magnetic constant or permeability of vacuum [N/A**2]       1.25663706143592E-06
 Electric constant or permittivity of vacuum [F/m]          8.85418781762039E-12
 Planck constant (h) [J*s]                                  6.62606896000000E-34
 Planck constant (h-bar) [J*s]                              1.05457162825177E-34
 Elementary charge [C]                                      1.60217648700000E-19
 Electron mass [kg]                                         9.10938215000000E-31
 Electron g factor [ ]                                     -2.00231930436220E+00
 Proton mass [kg]                                           1.67262163700000E-27
 Fine-structure constant                                    7.29735253760000E-03
 Rydberg constant [1/m]                                     1.09737315685270E+07
 Avogadro constant [1/mol]                                  6.02214179000000E+23
 Boltzmann constant [J/K]                                   1.38065040000000E-23
 Atomic mass unit [kg]                                      1.66053878200000E-27
 Bohr radius [m]                                            5.29177208590000E-11

 *** Conversion factors ***

 [u] -> [a.u.]                                              1.82288848426455E+03
 [Angstrom] -> [Bohr] = [a.u.]                              1.88972613288564E+00
 [a.u.] = [Bohr] -> [Angstrom]                              5.29177208590000E-01
 [a.u.] -> [s]                                              2.41888432650478E-17
 [a.u.] -> [fs]                                             2.41888432650478E-02
 [a.u.] -> [J]                                              4.35974393937059E-18
 [a.u.] -> [N]                                              8.23872205491840E-08
 [a.u.] -> [K]                                              3.15774647902944E+05
 [a.u.] -> [kJ/mol]                                         2.62549961709828E+03
 [a.u.] -> [kcal/mol]                                       6.27509468713739E+02
 [a.u.] -> [Pa]                                             2.94210107994716E+13
 [a.u.] -> [bar]                                            2.94210107994716E+08
 [a.u.] -> [atm]                                            2.90362800883016E+08
 [a.u.] -> [eV]                                             2.72113838565563E+01
 [a.u.] -> [Hz]                                             6.57968392072181E+15
 [a.u.] -> [1/cm] (wave numbers)                            2.19474631370540E+05
 [a.u./Bohr**2] -> [1/cm]                                   5.14048714338585E+03
 

 CELL_TOP| Volume [angstrom^3]:                                     27000.000000
 CELL_TOP| Vector a [angstrom    30.000     0.000     0.000   |a| =    30.000000
 CELL_TOP| Vector b [angstrom     0.000    30.000     0.000   |b| =    30.000000
 CELL_TOP| Vector c [angstrom     0.000     0.000    30.000   |c| =    30.000000
 CELL_TOP| Angle (b,c), alpha [degree]:                                90.000000
 CELL_TOP| Angle (a,c), beta  [degree]:                                90.000000
 CELL_TOP| Angle (a,b), gamma [degree]:                                90.000000
 CELL_TOP| Numerically orthorhombic:                                         YES
 CELL_TOP| Periodicity                                                      NONE

 GENERATE|  Preliminary Number of Bonds generated:                             0
 GENERATE|  Achieved consistency in connectivity generation.

 CELL| Volume [angstrom^3]:                                         27000.000000
 CELL| Vector a [angstrom]:      30.000     0.000     0.000   |a| =    30.000000
 CELL| Vector b [angstrom]:       0.000    30.000     0.000   |b| =    30.000000
 CELL| Vector c [angstrom]:       0.000     0.000    30.000   |c| =    30.000000
 CELL| Angle (b,c), alpha [degree]:                                    90.000000
 CELL| Angle (a,c), beta  [degree]:                                    90.000000
 CELL| Angle (a,b), gamma [degree]:                                    90.000000
 CELL| Numerically orthorhombic:                                             YES
 CELL| Periodicity                                                          NONE

 CELL_REF| Volume [angstrom^3]:                                     27000.000000
 CELL_REF| Vector a [angstrom    30.000     0.000     0.000   |a| =    30.000000
 CELL_REF| Vector b [angstrom     0.000    30.000     0.000   |b| =    30.000000
 CELL_REF| Vector c [angstrom     0.000     0.000    30.000   |c| =    30.000000
 CELL_REF| Angle (b,c), alpha [degree]:                                90.000000
 CELL_REF| Angle (a,c), beta  [degree]:                                90.000000
 CELL_REF| Angle (a,b), gamma [degree]:                                90.000000
 CELL_REF| Numerically orthorhombic:                                         YES
 CELL_REF| Periodicity                                                      NONE

 *******************************************************************************
 *******************************************************************************
 **                                                                           **
 **     #####                         ##              ##                      **
 **    ##   ##            ##          ##              ##                      **
 **   ##     ##                       ##            ######                    **
 **   ##     ##  ##   ##  ##   #####  ##  ##   ####   ##    #####    #####    **
 **   ##     ##  ##   ##  ##  ##      ## ##   ##      ##   ##   ##  ##   ##   **
 **   ##  ## ##  ##   ##  ##  ##      ####     ###    ##   ######   ######    **
 **    ##  ###   ##   ##  ##  ##      ## ##      ##   ##   ##       ##        **
 **     #######   #####   ##   #####  ##  ##  ####    ##    #####   ##        **
 **           ##                                                    ##        **
 **                                                                           **
 **                                                ... make the atoms dance   **
 **                                                                           **
 **            Copyright (C) by CP2K developers group (2000-2025)             **
 **                      J. Chem. Phys. 152, 194103 (2020)                    **
 **                                                                           **
 *******************************************************************************

 DFT| Spin restricted Kohn-Sham (RKS) calculation                            RKS
 DFT| Multiplicity                                                             1
 DFT| Number of spin states                                                    1
 DFT| Charge                                                                   0
 DFT| Self-interaction correction (SIC)                                       NO
 DFT| Cutoffs: density                                              1.000000E-10
 DFT|          gradient                                             1.000000E-10
 DFT|          tau                                                  1.000000E-10
 DFT|          cutoff_smoothing_range                               0.000000E+00
 DFT| XC density smoothing                                                  NONE
 DFT| XC derivatives                                                          PW

 FUNCTIONAL| PBE:
 FUNCTIONAL| J.P.Perdew, K.Burke, M.Ernzerhof, Phys. Rev. Letter, vol. 77, n 18,
 FUNCTIONAL|  pp. 3865-3868, (1996)sx=0.750sc=1.000{spin unpolarized}           


 QS| Method:                                                                GAPW
 QS| Density plane wave grid type                        NON-SPHERICAL FULLSPACE
 QS| Number of grid levels:                                                    4
 QS| Density cutoff [a.u.]:                                                250.0
 QS| Multi grid cutoff [a.u.]: 1) grid level                               250.0
 QS|                           2) grid level                                83.3
 QS|                           3) grid level                                27.8
 QS|                           4) grid level                                 9.3
 QS| Grid level progression factor:                                          3.0
 QS| Relative density cutoff [a.u.]:                                        50.0
 QS| Interaction thresholds: eps_pgf_orb:                                1.0E-12
 QS|                         eps_filter_matrix:                          0.0E+00
 QS|                         eps_core_charge:                            1.0E-14
 QS|                         eps_rho_gspace:                             1.0E-12
 QS|                         eps_rho_rspace:                             1.0E-12
 QS|                         eps_gvg_rspace:                             1.0E-06
 QS|                         eps_ppl:                                    1.0E-02
 QS|                         eps_ppnl:                                   1.0E-08
 QS| GAPW|      One center basis from orbital basis primitives
 QS| GAPW|                   eps_fit:                                    1.0E-04
 QS| GAPW|                   eps_iso:                                    1.0E-12
 QS| GAPW|                   eps_svd:                                    1.0E-08
 QS| GAPW|                   eps_cpc:                                    1.0E-12
 QS| GAPW|   atom-r-grid: quadrature:                                     GC_LOG
 QS| GAPW|      atom-s-grid:  max l :                                          4
 QS| GAPW|      max_l_rho0 :                                                   2
 QS| GAPW|      At least one kind is NOT PAW, i.e. it has only soft AO 
 QS| GAPW|      The NOT PAW atoms are treated fully GPW


 ATOMIC KIND INFORMATION

  1. Atomic kind: O                                     Number of atoms:       3

     Orbital Basis Set                                      aug-SZV-MOLOPT-ae-SR

       Number of orbital shell sets:                                           2
       Number of orbital shells:                                               6
       Number of primitive Cartesian functions:                                7
       Number of Cartesian basis functions:                                   15
       Number of spherical basis functions:                                   14
       Norm type:                                                              2

       Normalised Cartesian orbitals:

                        Set   Shell   Orbital            Exponent    Coefficient

                          1       1    1s                0.162492       0.000000
                                                         0.380389       0.241686
                                                         1.169596       0.320234
                                                         5.033151      -0.239413

                          1       2    2s                0.162492       0.120425
                                                         0.380389       0.131001
                                                         1.169596      -0.000041
                                                         5.033151      -0.089217

                          1       3    2px               0.162492       0.000000
                                                         0.380389       0.166903
                                                         1.169596       1.053568
                                                         5.033151       1.675450
                          1       3    2py               0.162492       0.000000
                                                         0.380389       0.166903
                                                         1.169596       1.053568
                                                         5.033151       1.675450
                          1       3    2pz               0.162492       0.000000
                                                         0.380389       0.166903
                                                         1.169596       1.053568
                                                         5.033151       1.675450

                          1       4    3px               0.162492       0.001278
                                                         0.380389       0.422682
                                                         1.169596       0.000775
                                                         5.033151       0.003884
                          1       4    3py               0.162492       0.001278
                                                         0.380389       0.422682
                                                         1.169596       0.000775
                                                         5.033151       0.003884
                          1       4    3pz               0.162492       0.001278
                                                         0.380389       0.422682
                                                         1.169596       0.000775
                                                         5.033151       0.003884

                          1       5    3dx2              0.162492      -0.037898
                                                         0.380389       0.380180
                                                         1.169596       0.208664
                                                         5.033151       1.207157
                          1       5    3dxy              0.162492      -0.065641
                                                         0.380389       0.658491
                                                         1.169596       0.361417
                                                         5.033151       2.090858
                          1       5    3dxz              0.162492      -0.065641
                                                         0.380389       0.658491
                                                         1.169596       0.361417
                                                         5.033151       2.090858
                          1       5    3dy2              0.162492      -0.037898
                                                         0.380389       0.380180
                                                         1.169596       0.208664
                                                         5.033151       1.207157
                          1       5    3dyz              0.162492      -0.065641
                                                         0.380389       0.658491
                                                         1.169596       0.361417
                                                         5.033151       2.090858
                          1       5    3dz2              0.162492      -0.037898
                                                         0.380389       0.380180
                                                         1.169596       0.208664
                                                         5.033151       1.207157

                          2       1    1s              130.709321       4.251943
                                                        23.808866       4.112294
                                                         6.443608       1.281623

     RI Auxiliary Basis Set             RI_aug-SZV-MOLOPT-ae-SR_N_RI_034_s_p_d_f

       Number of orbital shell sets:                                          12
       Number of orbital shells:                                              12
       Number of primitive Cartesian functions:                               12
       Number of Cartesian basis functions:                                   39
       Number of spherical basis functions:                                   34
       Norm type:                                                              2

       Normalised Cartesian orbitals:

                        Set   Shell   Orbital            Exponent    Coefficient

                          1       1    1s                0.437626       0.383475

                          2       1   10dx2              0.833911       1.197758
                          2       1   10dxy              0.833911       2.074578
                          2       1   10dxz              0.833911       2.074578
                          2       1   10dy2              0.833911       1.197758
                          2       1   10dyz              0.833911       2.074578
                          2       1   10dz2              0.833911       1.197758

                          3       1    6px               0.900493       1.250376
                          3       1    6py               0.900493       1.250376
                          3       1    6pz               0.900493       1.250376

                          4       1   12fx3              1.229346       2.342726
                          4       1   12fx2y             1.229346       5.238494
                          4       1   12fx2z             1.229346       5.238494
                          4       1   12fxy2             1.229346       5.238494
                          4       1   12fxyz             1.229346       9.073337
                          4       1   12fxz2             1.229346       5.238494
                          4       1   12fy3              1.229346       2.342726
                          4       1   12fy2z             1.229346       5.238494
                          4       1   12fyz2             1.229346       5.238494
                          4       1   12fz3              1.229346       2.342726

                          5       1    7px               1.580726       2.526451
                          5       1    7py               1.580726       2.526451
                          5       1    7pz               1.580726       2.526451

                          6       1    2s                1.930028       1.167032

                          7       1   11dx2              3.355577      13.693108
                          7       1   11dxy              3.355577      23.717160
                          7       1   11dxz              3.355577      23.717160
                          7       1   11dy2              3.355577      13.693108
                          7       1   11dyz              3.355577      23.717160
                          7       1   11dz2              3.355577      13.693108

                          8       1    3s                7.045462       3.082068

                          9       1    8px               7.187234      16.774219
                          9       1    8py               7.187234      16.774219
                          9       1    8pz               7.187234      16.774219

                         10       1    9px              31.206613     105.135257
                         10       1    9py              31.206613     105.135257
                         10       1    9pz              31.206613     105.135257

                         11       1    4s               33.536295       9.932222

                         12       1    5s              158.844986      31.888950

       Atomic covalent radius [Angstrom]:                                  0.730

       Atomic van der Waals radius [Angstrom]:                             1.520

     The atoms of this atomic kind are PAW atoms (GAPW):
       Hard Gaussian function radius:                                      1.512
       Rho0 radius:                                                        1.512
       Maximum GTO radius used for PAW projector construction:            24.566

     GAPW Soft Basis Set                               aug-SZV-MOLOPT-ae-SR_soft

       Number of orbital shell sets:                                           2
       Number of orbital shells:                                               6
       Number of primitive Cartesian functions:                                3
       Number of Cartesian basis functions:                                   15
       Number of spherical basis functions:                                   14
       Norm type:                                                              2

       Normalised Cartesian orbitals:

                        Set   Shell   Orbital            Exponent    Coefficient

                          1       1    1s                0.162492       0.000000
                                                         0.380389       0.241686
                                                         1.169596       0.320234

                          1       2    2s                0.162492       0.120425
                                                         0.380389       0.131001
                                                         1.169596      -0.000041

                          1       3    2px               0.162492       0.000000
                                                         0.380389       0.166903
                                                         1.169596       1.053568
                          1       3    2py               0.162492       0.000000
                                                         0.380389       0.166903
                                                         1.169596       1.053568
                          1       3    2pz               0.162492       0.000000
                                                         0.380389       0.166903
                                                         1.169596       1.053568

                          1       4    3px               0.162492       0.001278
                                                         0.380389       0.422682
                                                         1.169596       0.000775
                          1       4    3py               0.162492       0.001278
                                                         0.380389       0.422682
                                                         1.169596       0.000775
                          1       4    3pz               0.162492       0.001278
                                                         0.380389       0.422682
                                                         1.169596       0.000775

                          1       5    3dx2              0.162492      -0.037898
                                                         0.380389       0.380180
                                                         1.169596       0.208664
                          1       5    3dxy              0.162492      -0.065641
                                                         0.380389       0.658491
                                                         1.169596       0.361417
                          1       5    3dxz              0.162492      -0.065641
                                                         0.380389       0.658491
                                                         1.169596       0.361417
                          1       5    3dy2              0.162492      -0.037898
                                                         0.380389       0.380180
                                                         1.169596       0.208664
                          1       5    3dyz              0.162492      -0.065641
                                                         0.380389       0.658491
                                                         1.169596       0.361417
                          1       5    3dz2              0.162492      -0.037898
                                                         0.380389       0.380180
                                                         1.169596       0.208664

                          2       1    1s         

     AE Potential information for                                            ALL

       Description:                                       All-electron potential
                                          Krack, Parrinello, PCCP 2, 2105 (2000)

       Gaussian exponent of the core charge distribution:               8.154466
       Electronic configuration (s p d ...):                           4   4   0

  2. Atomic kind: N                                     Number of atoms:       1

     Orbital Basis Set                                      aug-SZV-MOLOPT-ae-SR

       Number of orbital shell sets:                                           2
       Number of orbital shells:                                               6
       Number of primitive Cartesian functions:                                7
       Number of Cartesian basis functions:                                   15
       Number of spherical basis functions:                                   14
       Norm type:                                                              2

       Normalised Cartesian orbitals:

                        Set   Shell   Orbital            Exponent    Coefficient

                          1       1    1s                0.112012       0.000000
                                                         0.285714       0.194997
                                                         0.878497       0.258372
                                                         3.780456      -0.193164

                          1       2    2s                0.112012       0.083551
                                                         0.285714      -0.189186
                                                         0.878497      -0.469875
                                                         3.780456      -0.002085

                          1       3    2px               0.112012       0.000000
                                                         0.285714       0.116706
                                                         0.878497       0.736704
                                                         3.780456       1.171553
                          1       3    2py               0.112012       0.000000
                                                         0.285714       0.116706
                                                         0.878497       0.736704
                                                         3.780456       1.171553
                          1       3    2pz               0.112012       0.000000
                                                         0.285714       0.116706
                                                         0.878497       0.736704
                                                         3.780456       1.171553

                          1       4    3px               0.112012       0.141957
                                                         0.285714      -0.286713
                                                         0.878497       0.074784
                                                         3.780456       0.008085
                          1       4    3py               0.112012       0.141957
                                                         0.285714      -0.286713
                                                         0.878497       0.074784
                                                         3.780456       0.008085
                          1       4    3pz               0.112012       0.141957
                                                         0.285714      -0.286713
                                                         0.878497       0.074784
                                                         3.780456       0.008085

                          1       5    3dx2              0.112012      -0.000364
                                                         0.285714       0.186009
                                                         0.878497      -0.044751
                                                         3.780456       1.815169
                          1       5    3dxy              0.112012      -0.000630
                                                         0.285714       0.322177
                                                         0.878497      -0.077512
                                                         3.780456       3.143965
                          1       5    3dxz              0.112012      -0.000630
                                                         0.285714       0.322177
                                                         0.878497      -0.077512
                                                         3.780456       3.143965
                          1       5    3dy2              0.112012      -0.000364
                                                         0.285714       0.186009
                                                         0.878497      -0.044751
                                                         3.780456       1.815169
                          1       5    3dyz              0.112012      -0.000630
                                                         0.285714       0.322177
                                                         0.878497      -0.077512
                                                         3.780456       3.143965
                          1       5    3dz2              0.112012      -0.000364
                                                         0.285714       0.186009
                                                         0.878497      -0.044751
                                                         3.780456       1.815169

                          2       1    1s               99.106169       3.454881
                                                        18.052312       3.341410
                                                         4.885660       1.041372

     RI Auxiliary Basis Set             RI_aug-SZV-MOLOPT-ae-SR_N_RI_036_s_p_d_f

       Number of orbital shell sets:                                          12
       Number of orbital shells:                                              12
       Number of primitive Cartesian functions:                               12
       Number of Cartesian basis functions:                                   42
       Number of spherical basis functions:                                   36
       Norm type:                                                              2

       Normalised Cartesian orbitals:

                        Set   Shell   Orbital            Exponent    Coefficient

                          1       1    1s                0.362114       0.332693

                          2       1    6px               0.499696       0.598857
                          2       1    6py               0.499696       0.598857
                          2       1    6pz               0.499696       0.598857

                          3       1    9dx2              0.588659       0.651135
                          3       1    9dxy              0.588659       1.127800
                          3       1    9dxz              0.588659       1.127800
                          3       1    9dy2              0.588659       0.651135
                          3       1    9dyz              0.588659       1.127800
                          3       1    9dz2              0.588659       0.651135

                          4       1    2s                0.631634       0.504963

                          5       1   12fx3              0.736605       0.740002
                          5       1   12fx2y             0.736605       1.654695
                          5       1   12fx2z             0.736605       1.654695
                          5       1   12fxy2             0.736605       1.654695
                          5       1   12fxyz             0.736605       2.866016
                          5       1   12fxz2             0.736605       1.654695
                          5       1   12fy3              0.736605       0.740002
                          5       1   12fy2z             0.736605       1.654695
                          5       1   12fyz2             0.736605       1.654695
                          5       1   12fz3              0.736605       0.740002

                          6       1    7px               0.883396       1.220771
                          6       1    7py               0.883396       1.220771
                          6       1    7pz               0.883396       1.220771

                          7       1   10dx2              1.153946       2.114628
                          7       1   10dxy              1.153946       3.662643
                          7       1   10dxz              1.153946       3.662643
                          7       1   10dy2              1.153946       2.114628
                          7       1   10dyz              1.153946       3.662643
                          7       1   10dz2              1.153946       2.114628

                          8       1    3s                2.978947       1.616059

                          9       1    8px               4.407746       9.103549
                          9       1    8py               4.407746       9.103549
                          9       1    8pz               4.407746       9.103549

                         10       1   11dx2              5.691883      34.522914
                         10       1   11dxy              5.691883      59.795442
                         10       1   11dxz              5.691883      59.795442
                         10       1   11dy2              5.691883      34.522914
                         10       1   11dyz              5.691883      59.795442
                         10       1   11dz2              5.691883      34.522914

                         11       1    4s               18.342052       6.316784

                         12       1    5s              106.308958      23.595951

       Atomic covalent radius [Angstrom]:                                  0.750

       Atomic van der Waals radius [Angstrom]:                             1.550

     The atoms of this atomic kind are PAW atoms (GAPW):
       Hard Gaussian function radius:                                      1.512
       Rho0 radius:                                                        1.512
       Maximum GTO radius used for PAW projector construction:            24.566

     GAPW Soft Basis Set                               aug-SZV-MOLOPT-ae-SR_soft

       Number of orbital shell sets:                                           2
       Number of orbital shells:                                               6
       Number of primitive Cartesian functions:                                4
       Number of Cartesian basis functions:                                   15
       Number of spherical basis functions:                                   14
       Norm type:                                                              2

       Normalised Cartesian orbitals:

                        Set   Shell   Orbital            Exponent    Coefficient

                          1       1    1s                0.112012       0.000000
                                                         0.285714       0.194997
                                                         0.878497       0.258372
                                                         3.780456      -0.193164

                          1       2    2s                0.112012       0.083551
                                                         0.285714      -0.189186
                                                         0.878497      -0.469875
                                                         3.780456      -0.002085

                          1       3    2px               0.112012       0.000000
                                                         0.285714       0.116706
                                                         0.878497       0.736704
                                                         3.780456       1.171553
                          1       3    2py               0.112012       0.000000
                                                         0.285714       0.116706
                                                         0.878497       0.736704
                                                         3.780456       1.171553
                          1       3    2pz               0.112012       0.000000
                                                         0.285714       0.116706
                                                         0.878497       0.736704
                                                         3.780456       1.171553

                          1       4    3px               0.112012       0.141957
                                                         0.285714      -0.286713
                                                         0.878497       0.074784
                                                         3.780456       0.008085
                          1       4    3py               0.112012       0.141957
                                                         0.285714      -0.286713
                                                         0.878497       0.074784
                                                         3.780456       0.008085
                          1       4    3pz               0.112012       0.141957
                                                         0.285714      -0.286713
                                                         0.878497       0.074784
                                                         3.780456       0.008085

                          1       5    3dx2              0.112012      -0.000364
                                                         0.285714       0.186009
                                                         0.878497      -0.044751
                                                         3.780456       1.815169
                          1       5    3dxy              0.112012      -0.000630
                                                         0.285714       0.322177
                                                         0.878497      -0.077512
                                                         3.780456       3.143965
                          1       5    3dxz              0.112012      -0.000630
                                                         0.285714       0.322177
                                                         0.878497      -0.077512
                                                         3.780456       3.143965
                          1       5    3dy2              0.112012      -0.000364
                                                         0.285714       0.186009
                                                         0.878497      -0.044751
                                                         3.780456       1.815169
                          1       5    3dyz              0.112012      -0.000630
                                                         0.285714       0.322177
                                                         0.878497      -0.077512
                                                         3.780456       3.143965
                          1       5    3dz2              0.112012      -0.000364
                                                         0.285714       0.186009
                                                         0.878497      -0.044751
                                                         3.780456       1.815169

                          2       1    1s         

     AE Potential information for                                            ALL

       Description:                                       All-electron potential
                                          Krack, Parrinello, PCCP 2, 2105 (2000)

       Gaussian exponent of the core charge distribution:               5.979100
       Electronic configuration (s p d ...):                           4   3   0

  3. Atomic kind: C                                     Number of atoms:       6

     Orbital Basis Set                                      aug-SZV-MOLOPT-ae-SR

       Number of orbital shell sets:                                           2
       Number of orbital shells:                                               6
       Number of primitive Cartesian functions:                                7
       Number of Cartesian basis functions:                                   15
       Number of spherical basis functions:                                   14
       Norm type:                                                              2

       Normalised Cartesian orbitals:

                        Set   Shell   Orbital            Exponent    Coefficient

                          1       1    2s                0.114559       0.000000
                                                         0.222290       0.161536
                                                         0.683483       0.214036
                                                         2.941249      -0.160017

                          1       2    3s                0.114559       0.078076
                                                         0.222290       0.130402
                                                         0.683483      -0.084834
                                                         2.941249       0.041379

                          1       3    3px               0.114559       0.000000
                                                         0.222290       0.085276
                                                         0.683483       0.538304
                                                         2.941249       0.856045
                          1       3    3py               0.114559       0.000000
                                                         0.222290       0.085276
                                                         0.683483       0.538304
                                                         2.941249       0.856045
                          1       3    3pz               0.114559       0.000000
                                                         0.222290       0.085276
                                                         0.683483       0.538304
                                                         2.941249       0.856045

                          1       4    4px               0.114559       0.224492
                                                         0.222290      -0.546182
                                                         0.683483       0.918493
                                                         2.941249      -0.348342
                          1       4    4py               0.114559       0.224492
                                                         0.222290      -0.546182
                                                         0.683483       0.918493
                                                         2.941249      -0.348342
                          1       4    4pz               0.114559       0.224492
                                                         0.222290      -0.546182
                                                         0.683483       0.918493
                                                         2.941249      -0.348342

                          1       5    4dx2              0.114559       0.004023
                                                         0.222290       0.096934
                                                         0.683483       0.116751
                                                         2.941249       0.357653
                          1       5    4dxy              0.114559       0.006968
                                                         0.222290       0.167895
                                                         0.683483       0.202218
                                                         2.941249       0.619473
                          1       5    4dxz              0.114559       0.006968
                                                         0.222290       0.167895
                                                         0.683483       0.202218
                                                         2.941249       0.619473
                          1       5    4dy2              0.114559       0.004023
                                                         0.222290       0.096934
                                                         0.683483       0.116751
                                                         2.941249       0.357653
                          1       5    4dyz              0.114559       0.006968
                                                         0.222290       0.167895
                                                         0.683483       0.202218
                                                         2.941249       0.619473
                          1       5    4dz2              0.114559       0.004023
                                                         0.222290       0.096934
                                                         0.683483       0.116751
                                                         2.941249       0.357653

                          2       1    1s               71.616837       2.707814
                                                        13.045096       2.618880
                                                         3.530512       0.816191

     RI Auxiliary Basis Set             RI_aug-SZV-MOLOPT-ae-SR_N_RI_045_s_p_d_f

       Number of orbital shell sets:                                          15
       Number of orbital shells:                                              15
       Number of primitive Cartesian functions:                               15
       Number of Cartesian basis functions:                                   53
       Number of spherical basis functions:                                   45
       Norm type:                                                              2

       Normalised Cartesian orbitals:

                        Set   Shell   Orbital            Exponent    Coefficient

                          1       1    1s                0.335626       0.314269

                          2       1    7px               0.430431       0.496958
                          2       1    7py               0.430431       0.496958
                          2       1    7pz               0.430431       0.496958

                          3       1   12dx2              0.522083       0.527781
                          3       1   12dxy              0.522083       0.914144
                          3       1   12dxz              0.522083       0.914144
                          3       1   12dy2              0.522083       0.527781
                          3       1   12dyz              0.522083       0.914144
                          3       1   12dz2              0.522083       0.527781

                          4       1    8px               0.557902       0.687287
                          4       1    8py               0.557902       0.687287
                          4       1    8pz               0.557902       0.687287

                          5       1   14fx3              0.588350       0.446308
                          5       1   14fx2y             0.588350       0.997974
                          5       1   14fx2z             0.588350       0.997974
                          5       1   14fxy2             0.588350       0.997974
                          5       1   14fxyz             0.588350       1.728542
                          5       1   14fxz2             0.588350       0.997974
                          5       1   14fy3              0.588350       0.446308
                          5       1   14fy2z             0.588350       0.997974
                          5       1   14fyz2             0.588350       0.997974
                          5       1   14fz3              0.588350       0.446308

                          6       1    2s                1.012193       0.719213

                          7       1    9px               1.595955       2.556913
                          7       1    9py               1.595955       2.556913
                          7       1    9pz               1.595955       2.556913

                          8       1   15fx3              2.519735      11.776133
                          8       1   15fx2y             2.519735      26.332235
                          8       1   15fx2z             2.519735      26.332235
                          8       1   15fxy2             2.519735      26.332235
                          8       1   15fxyz             2.519735      45.608768
                          8       1   15fxz2             2.519735      26.332235
                          8       1   15fy3              2.519735      11.776133
                          8       1   15fy2z             2.519735      26.332235
                          8       1   15fyz2             2.519735      26.332235
                          8       1   15fz3              2.519735      11.776133

                          9       1   13dx2              2.522804       8.312002
                          9       1   13dxy              2.522804      14.396810
                          9       1   13dxz              2.522804      14.396810
                          9       1   13dy2              2.522804       8.312002
                          9       1   13dyz              2.522804      14.396810
                          9       1   13dz2              2.522804       8.312002

                         10       1    3s                3.115568       1.671333

                         11       1   10px               5.069113      10.841891
                         11       1   10py               5.069113      10.841891
                         11       1   10pz               5.069113      10.841891

                         12       1    4s                9.232047       3.774710

                         13       1   11px              15.199704      42.779333
                         13       1   11py              15.199704      42.779333
                         13       1   11pz              15.199704      42.779333

                         14       1    5s               27.130488       8.472338

                         15       1    6s               79.597157      18.992549

       Atomic covalent radius [Angstrom]:                                  0.770

       Atomic van der Waals radius [Angstrom]:                             1.700

     The atoms of this atomic kind are PAW atoms (GAPW):
       Hard Gaussian function radius:                                      1.512
       Rho0 radius:                                                        1.512
       Maximum GTO radius used for PAW projector construction:            24.566

     GAPW Soft Basis Set                               aug-SZV-MOLOPT-ae-SR_soft

       Number of orbital shell sets:                                           2
       Number of orbital shells:                                               6
       Number of primitive Cartesian functions:                                5
       Number of Cartesian basis functions:                                   15
       Number of spherical basis functions:                                   14
       Norm type:                                                              2

       Normalised Cartesian orbitals:

                        Set   Shell   Orbital            Exponent    Coefficient

                          1       1    2s                0.114559       0.000000
                                                         0.222290       0.161536
                                                         0.683483       0.214036
                                                         2.941249      -0.160017

                          1       2    3s                0.114559       0.078076
                                                         0.222290       0.130402
                                                         0.683483      -0.084834
                                                         2.941249       0.041379

                          1       3    3px               0.114559       0.000000
                                                         0.222290       0.085276
                                                         0.683483       0.538304
                                                         2.941249       0.856045
                          1       3    3py               0.114559       0.000000
                                                         0.222290       0.085276
                                                         0.683483       0.538304
                                                         2.941249       0.856045
                          1       3    3pz               0.114559       0.000000
                                                         0.222290       0.085276
                                                         0.683483       0.538304
                                                         2.941249       0.856045

                          1       4    4px               0.114559       0.224492
                                                         0.222290      -0.546182
                                                         0.683483       0.918493
                                                         2.941249      -0.348342
                          1       4    4py               0.114559       0.224492
                                                         0.222290      -0.546182
                                                         0.683483       0.918493
                                                         2.941249      -0.348342
                          1       4    4pz               0.114559       0.224492
                                                         0.222290      -0.546182
                                                         0.683483       0.918493
                                                         2.941249      -0.348342

                          1       5    4dx2              0.114559       0.004023
                                                         0.222290       0.096934
                                                         0.683483       0.116751
                                                         2.941249       0.357653
                          1       5    4dxy              0.114559       0.006968
                                                         0.222290       0.167895
                                                         0.683483       0.202218
                                                         2.941249       0.619473
                          1       5    4dxz              0.114559       0.006968
                                                         0.222290       0.167895
                                                         0.683483       0.202218
                                                         2.941249       0.619473
                          1       5    4dy2              0.114559       0.004023
                                                         0.222290       0.096934
                                                         0.683483       0.116751
                                                         2.941249       0.357653
                          1       5    4dyz              0.114559       0.006968
                                                         0.222290       0.167895
                                                         0.683483       0.202218
                                                         2.941249       0.619473
                          1       5    4dz2              0.114559       0.004023
                                                         0.222290       0.096934
                                                         0.683483       0.116751
                                                         2.941249       0.357653

                          2       1    1s                3.530512       0.816191

     AE Potential information for                                            ALL

       Description:                                       All-electron potential
                                          Krack, Parrinello, PCCP 2, 2105 (2000)

       Gaussian exponent of the core charge distribution:               4.109048
       Electronic configuration (s p d ...):                           4   2   0

  4. Atomic kind: H                                     Number of atoms:       9

     Orbital Basis Set                                      aug-SZV-MOLOPT-ae-SR

       Number of orbital shell sets:                                           1
       Number of orbital shells:                                               4
       Number of primitive Cartesian functions:                                4
       Number of Cartesian basis functions:                                    6
       Number of spherical basis functions:                                    6
       Norm type:                                                              2

       Normalised Cartesian orbitals:

                        Set   Shell   Orbital            Exponent    Coefficient

                          1       1    2s                0.065428       0.000000
                                                         0.168855       0.083474
                                                         0.623914       0.267839
                                                         3.425251       0.276934

                          1       2    3s                0.065428      -0.066952
                                                         0.168855       0.261968
                                                         0.623914       0.081548
                                                         3.425251      -0.022414

                          1       3    4s                0.065428       0.165615
                                                         0.168855      -0.226449
                                                         0.623914      -0.005802
                                                         3.425251       0.005451

                          1       4    3px               0.065428       0.053063
                                                         0.168855      -0.030502
                                                         0.623914       0.062721
                                                         3.425251       0.019012
                          1       4    3py               0.065428       0.053063
                                                         0.168855      -0.030502
                                                         0.623914       0.062721
                                                         3.425251       0.019012
                          1       4    3pz               0.065428       0.053063
                                                         0.168855      -0.030502
                                                         0.623914       0.062721
                                                         3.425251       0.019012

     RI Auxiliary Basis Set             RI_aug-SZV-MOLOPT-ae-SR_N_RI_011_s_p_d_f

       Number of orbital shell sets:                                           7
       Number of orbital shells:                                               7
       Number of primitive Cartesian functions:                                7
       Number of Cartesian basis functions:                                   11
       Number of spherical basis functions:                                   11
       Norm type:                                                              2

       Normalised Cartesian orbitals:

                        Set   Shell   Orbital            Exponent    Coefficient

                          1       1    1s                0.220060       0.228990

                          2       1    6px               0.249217       0.250993
                          2       1    6py               0.249217       0.250993
                          2       1    6pz               0.249217       0.250993

                          3       1    2s                0.439991       0.385028

                          4       1    3s                1.250226       0.842658

                          5       1    7px               1.527347       2.420262
                          5       1    7py               1.527347       2.420262
                          5       1    7pz               1.527347       2.420262

                          6       1    4s                3.629850       1.874246

                          7       1    5s                7.032687       3.077875

       Atomic covalent radius [Angstrom]:                                  0.320

       Atomic van der Waals radius [Angstrom]:                             1.090

     AE Potential information for                                            ALL

       Description:                                       All-electron potential
                                          Krack, Parrinello, PCCP 2, 2105 (2000)

       Gaussian exponent of the core charge distribution:              12.500000
       Electronic configuration (s p d ...):                           1   0   0


 MOLECULE KIND INFORMATION


 All atoms are their own molecule, skipping detailed information


 TOTAL NUMBERS AND MAXIMUM NUMBERS

  Total number of            - Atomic kinds:                                   4
                             - Atoms:                                         19
                             - Shell sets:                                    29
                             - Shells:                                        96
                             - Primitive Cartesian functions:                106
                             - Cartesian basis functions:                    204
                             - Spherical basis functions:                    194

  Maximum angular momentum of the orbital basis functions:                     2


 MODULE QUICKSTEP: ATOMIC COORDINATES IN ANGSTROM

   Atom Kind Element         X             Y             Z       Z(eff)     Mass
      1    1 O     8     13.877952     13.017641     13.996368   8.0000  15.9994
      2    1 O     8     15.703609     14.903734     13.660151   8.0000  15.9994
      3    2 N     7     14.336704     16.455788     14.894868   7.0000  14.0067
      4    3 C     6     13.554605     14.293811     14.493698   6.0000  12.0107
      5    3 C     6     14.399957     15.443931     13.872570   6.0000  12.0107
      6    3 C     6     16.585717     15.770580     12.959512   6.0000  12.0107
      7    4 H     1     16.147268     16.094745     11.999379   1.0000   1.0079
      8    4 H     1     17.500610     15.202139     12.761893   1.0000   1.0079
      9    4 H     1     16.846288     16.660100     13.557323   1.0000   1.0079
     10    4 H     1     14.649350     17.411967     14.765088   1.0000   1.0079
     11    4 H     1     14.848902     13.002454     13.910090   1.0000   1.0079
     12    4 H     1     12.499390     14.474551     14.231270   1.0000   1.0079
     13    4 H     1     14.004263     15.818550     12.913679   1.0000   1.0079
     14    1 O     8     14.165464     16.612380     17.203917   8.0000  15.9994
     15    3 C     6     14.099113     15.963884     16.173273   6.0000  12.0107
     16    3 C     6     13.736454     14.523831     15.981864   6.0000  12.0107
     17    3 C     6     13.650375     13.634135     16.970159   6.0000  12.0107
     18    4 H     1     13.824385     13.944394     18.000621   1.0000   1.0079
     19    4 H     1     13.420104     12.588033     16.769816   1.0000   1.0079



 SCF PARAMETERS         Density guess:                                    ATOMIC
                        --------------------------------------------------------
                        max_scf:                                             500
                        max_scf_history:                                       0
                        max_diis:                                              4
                        --------------------------------------------------------
                        eps_scf:                                        1.00E-06
                        eps_scf_history:                                0.00E+00
                        eps_diis:                                       1.00E-01
                        eps_eigval:                                     1.00E-05
                        --------------------------------------------------------
                        level_shift [a.u.]:                             0.000000
                        added MOs                                       156    0
                        --------------------------------------------------------
                        Mixing method:                            BROYDEN_MIXING
                                                charge density mixing in g-space
                        --------------------------------------------------------
                        No outer SCF

 PW_GRID| Information for grid number                                          1
 PW_GRID| Grid distributed over                                   192 processors
 PW_GRID| Real space group dimensions                                   192    1
 PW_GRID| the grid is blocked:                                                NO
 PW_GRID| Cutoff [a.u.]                                                    250.0
 PW_GRID| spherical cutoff:                                                   NO
 PW_GRID|   Bounds   1           -202     202                Points:         405
 PW_GRID|   Bounds   2           -202     202                Points:         405
 PW_GRID|   Bounds   3           -202     202                Points:         405
 PW_GRID| Volume element (a.u.^3)  0.2743E-02     Volume (a.u.^3)    182205.0337
 PW_GRID| Grid span                                                    FULLSPACE
 PW_GRID|   Distribution                         Average         Max         Min
 PW_GRID|   G-Vectors                           345990.2      346275      345870
 PW_GRID|   G-Rays                                 854.3         855         854
 PW_GRID|   Real Space Points                   345990.2      492075      328050

 PW_GRID| Information for grid number                                          2
 PW_GRID| Number of the reference grid                                         1
 PW_GRID| Grid distributed over                                   192 processors
 PW_GRID| Real space group dimensions                                   192    1
 PW_GRID| the grid is blocked:                                                NO
 PW_GRID| Cutoff [a.u.]                                                     83.3
 PW_GRID| spherical cutoff:                                                   NO
 PW_GRID|   Bounds   1           -120     119                Points:         240
 PW_GRID|   Bounds   2           -120     119                Points:         240
 PW_GRID|   Bounds   3           -120     119                Points:         240
 PW_GRID| Volume element (a.u.^3)  0.1318E-01     Volume (a.u.^3)    182205.0337
 PW_GRID| Grid span                                                    FULLSPACE
 PW_GRID|   Distribution                         Average         Max         Min
 PW_GRID|   G-Vectors                            72000.0       72240       71760
 PW_GRID|   G-Rays                                 300.0         301         299
 PW_GRID|   Real Space Points                    72000.0      115200       57600

 PW_GRID| Information for grid number                                          3
 PW_GRID| Number of the reference grid                                         1
 PW_GRID| Grid distributed over                                   192 processors
 PW_GRID| Real space group dimensions                                    12   16
 PW_GRID| the grid is blocked:                                                NO
 PW_GRID| Cutoff [a.u.]                                                     27.8
 PW_GRID| spherical cutoff:                                                   NO
 PW_GRID|   Bounds   1            -67      67                Points:         135
 PW_GRID|   Bounds   2            -67      67                Points:         135
 PW_GRID|   Bounds   3            -67      67                Points:         135
 PW_GRID| Volume element (a.u.^3)  0.7406E-01     Volume (a.u.^3)    182205.0337
 PW_GRID| Grid span                                                    FULLSPACE
 PW_GRID|   Distribution                         Average         Max         Min
 PW_GRID|   G-Vectors                            12814.5       12960       12690
 PW_GRID|   G-Rays                                  94.9          96          94
 PW_GRID|   Real Space Points                    12814.5       14580       11880

 PW_GRID| Information for grid number                                          4
 PW_GRID| Number of the reference grid                                         1
 PW_GRID| Grid distributed over                                   192 processors
 PW_GRID| Real space group dimensions                                    12   16
 PW_GRID| the grid is blocked:                                                NO
 PW_GRID| Cutoff [a.u.]                                                      9.3
 PW_GRID| spherical cutoff:                                                   NO
 PW_GRID|   Bounds   1            -40      39                Points:          80
 PW_GRID|   Bounds   2            -40      39                Points:          80
 PW_GRID|   Bounds   3            -40      39                Points:          80
 PW_GRID| Volume element (a.u.^3)  0.3559         Volume (a.u.^3)    182205.0337
 PW_GRID| Grid span                                                    FULLSPACE
 PW_GRID|   Distribution                         Average         Max         Min
 PW_GRID|   G-Vectors                             2666.7        2800        2560
 PW_GRID|   G-Rays                                  33.3          35          32
 PW_GRID|   Real Space Points                     2666.7        2800        2400

 POISSON| Solver                                                         WAVELET
 POISSON| Wavelet| Scaling function                                           40
 POISSON| Periodicity                                                       NONE

 RS_GRID| Information for grid number                                          1
 RS_GRID|   Bounds   1           -202     202                Points:         405
 RS_GRID|   Bounds   2           -202     202                Points:         405
 RS_GRID|   Bounds   3           -202     202                Points:         405
 RS_GRID| Real space distribution over                                  4 groups
 RS_GRID| Real space distribution along direction                              1
 RS_GRID| Border size                                                         34
 RS_GRID| Real space distribution over                                  6 groups
 RS_GRID| Real space distribution along direction                              2
 RS_GRID| Border size                                                         34
 RS_GRID| Real space distribution over                                  8 groups
 RS_GRID| Real space distribution along direction                              3
 RS_GRID| Border size                                                         34
 RS_GRID|   Distribution                         Average         Max         Min
 RS_GRID|   Planes                                 169.2         170         169
 RS_GRID|   Distribution                         Average         Max         Min
 RS_GRID|   Planes                                 135.5         136         135
 RS_GRID|   Distribution                         Average         Max         Min
 RS_GRID|   Planes                                 118.6         119         118

 RS_GRID| Information for grid number                                          2
 RS_GRID|   Bounds   1           -120     119                Points:         240
 RS_GRID|   Bounds   2           -120     119                Points:         240
 RS_GRID|   Bounds   3           -120     119                Points:         240
 RS_GRID| Real space distribution over                                  4 groups
 RS_GRID| Real space distribution along direction                              1
 RS_GRID| Border size                                                         37
 RS_GRID| Real space distribution over                                  6 groups
 RS_GRID| Real space distribution along direction                              2
 RS_GRID| Border size                                                         37
 RS_GRID| Real space distribution over                                  8 groups
 RS_GRID| Real space distribution along direction                              3
 RS_GRID| Border size                                                         37
 RS_GRID|   Distribution                         Average         Max         Min
 RS_GRID|   Planes                                 134.0         134         134
 RS_GRID|   Distribution                         Average         Max         Min
 RS_GRID|   Planes                                 114.0         114         114
 RS_GRID|   Distribution                         Average         Max         Min
[...]
 https://doi.org/10.1007/s002140050523

 J. P. Perdew, K. Burke, M. Ernzerhof.
 Phys. Rev. Lett. 77, 3865-3868 (1996).
 Generalized gradient approximation made simple.
 https://doi.org/10.1103/PhysRevLett.77.3865


 -------------------------------------------------------------------------------
 -                                                                             -
 -                                T I M I N G                                  -
 -                                                                             -
 -------------------------------------------------------------------------------
 SUBROUTINE                       CALLS  ASD         SELF TIME        TOTAL TIME
                                MAXIMUM       AVERAGE  MAXIMUM  AVERAGE  MAXIMUM
 CP2K                                 1  1.0    0.016    0.034  353.168  353.169
 qs_energies                          1  2.0    0.000    0.000  352.863  352.865
 qs_energies_properties               1  3.0    0.000    0.000  241.566  241.568
 tddfpt                               1  4.0    0.000    0.000  241.566  241.568
 tddfpt_energies                      1  5.0    0.000    0.000  241.547  241.549
 tddfpt_davidson_solver               1  6.0    0.001    0.001  240.078  240.080
 tddfpt_compute_Aop_evects            9  7.0    0.000    0.000  238.294  238.295
 fhxc_kernel                          9  8.0    0.007    0.009  215.627  215.628
 fft_wrap_pw1pw2                   5190 11.1    0.104    0.137  136.287  145.649
 fft_wrap_pw1pw2_250               3654 12.1    2.919    3.829  128.213  142.429
 fft3d_ps                          5190 13.1   18.362   25.368  124.630  133.438
 scf_env_do_scf                       1  3.0    0.000    0.000  110.449  110.456
 scf_env_do_scf_inner_loop           75  4.0    0.002    0.006  110.449  110.455
 mp_alltoall_z22v                  5190 15.1  100.378  108.745  100.378  108.745
 qs_ks_update_qs_env                 75  5.0    0.001    0.001   78.844   78.860
 rebuild_ks_matrix                   75  6.0    0.000    0.000   78.837   78.853
 qs_ks_build_kohn_sham_matrix        75  7.0    0.011    0.014   78.837   78.853
 pw_poisson_solve                   255  9.4    1.150    1.545   72.515   74.946
 qs_rho_update_rho_low              257  7.8    0.003    0.003   74.863   74.874
 calculate_rho_elec                 257  8.8    0.337    0.477   73.914   73.919
 tddfpt_apply_coulomb               180  9.0    0.003    0.004   68.850   71.314
 x_to_yz                           2119 13.7    2.345    3.969   53.133   57.695
 yz_to_x                           2047 14.5    1.798    2.060   51.236   57.117
 xc_pw_derive                      1533 11.0    0.013    0.015   53.275   54.988
 tddfpt_apply_xc_analytic           180  9.0    0.287    0.410   45.744   47.068
 density_rs2pw                      257  9.8    0.011    0.012   44.073   46.893
 integrate_v_rspace                 255  9.0    0.007    0.009   44.889   45.846
 potential_pw2rs                    255 10.0    0.026    0.033   43.420   43.699
 transfer_pw2rs                    1276 10.9    0.024    0.033   39.712   41.177
 ps_wavelet_solve                   255 10.4   15.421   21.107   37.001   39.955
 xc_pw_divergence                   255 10.7    0.006    0.007   34.852   35.925
 mp_waitany                       84076 12.8   28.282   33.090   28.282   33.090
 grid_collocate_task_list           257  9.8   26.791   28.658   26.791   28.658
 xc_calc_2nd_deriv_analytical       900 10.1    1.288    1.581   26.475   27.134
 transfer_rs2pw                    1286 10.8    0.031    0.051   26.215   27.029
 integrate_four_center              435  9.8   14.334   23.168   25.808   25.888
 mp_sum_d                          5514  7.7   10.555   25.577   10.555   25.577
 transfer_pw2rs_250                 511 11.7    4.197    4.489   23.165   25.198
 prepare_gapw_den                   256  8.7    0.004    0.004   21.245   23.726
 mp_alltoall_d54                    255 11.4   11.156   23.290   11.156   23.290
 put_rho0_on_grid                   256  9.7    0.357    0.531   20.255   22.741
 tddfpt_apply_hfx                     9  8.0    0.002    0.002   22.289   22.290
 qs_vxc_create                       75  8.0    0.001    0.001   21.481   21.482
 xc_vxc_pw_create                    75  9.0    0.156    0.226   21.480   21.481
 tddft_hfx_matrix                   360  9.0    0.004    0.006   20.178   20.222
 mp_sync                           2308 11.5    9.157   18.826    9.157   18.826
 transfer_rs2pw_250                 515 11.7    4.621    4.907   16.089   16.987
 fft_wrap_pw1pw2_90                 512 11.9    0.103    0.178    6.606   16.303
 integrate_vhg0_rspace              255  9.4    0.113    0.179   15.464   16.073
 mp_alltoall_d45                    256 11.4   12.199   14.927   12.199   14.927
 mp_isend_dm3                     10252 12.8    9.292   14.686    9.292   14.686
 mp_alltoall_d11v                 15980 11.6    9.263   13.212    9.263   13.212
 mp_waitall_1                    495410 13.2    9.542   12.605    9.542   12.605
 transfer_pw2rs_90                  255 12.0    0.726    0.863    9.186   12.466
 sum_up_and_integrate                75  8.0    0.001    0.001   11.854   12.128
 xc_rho_set_and_dset_create          76 10.0    0.192    0.272   10.101   11.326
 transfer_pw2rs_30                  255 12.0    1.123    1.275    6.317    8.710
 cp2k_distribution_to_z_slices      255 10.4    1.061    1.236    7.715    8.483
 Vh_1c_gg_integrals                 255  9.4    0.020    0.135    2.571    6.973
 gspace_mixing                       74  5.0    0.097    0.137    6.881    6.884
 pw_integral_ab_c1d_c1d_gs          255 10.4    0.696    0.816    2.581    5.914
 transfer_rs2pw_90                  257 11.8    0.977    1.086    5.454    5.869
 hfx_ks_matrix                       75  8.0    0.001    0.002    5.640    5.681
 mp_sum_dm                         7798 10.0    4.003    5.014    4.003    5.014
 mp_max_i                           724  5.1    1.830    4.470    1.830    4.470
 rs_grid_zero                      1279 11.9    4.031    4.336    4.031    4.336
 pw_derive                         2298 11.8    3.858    4.181    3.858    4.181
 transfer_rs2pw_30                  257 11.8    1.444    1.637    3.550    3.769
 pw_copy                           3470 11.0    3.319    3.697    3.319    3.697
 pw_gather_p                       2561 13.3    2.811    3.474    2.811    3.474
 pw_scatter_p                      2629 12.8    2.781    3.150    2.781    3.150
 broyden_mixing                      74  6.0    3.018    3.055    3.113    3.126
 mp_sendrecv_dv                   98174 12.8    2.773    3.010    2.773    3.010
 cp_dbcsr_sm_fm_multiply           1126  8.6    0.013    0.017    2.930    2.988
 pw_copy_to_array                  2561 13.3    1.860    2.722    1.860    2.722
 pw_poisson_set                     256 10.4    0.005    0.006    2.339    2.403
 pw_poisson_rebuild                 255 10.4    0.000    0.000    2.160    2.247
 ps_wavelet_create                    1 10.0    0.000    0.000    2.159    2.246
 RS_z_slice_distribution              1 11.0    0.191    0.213    2.159    2.246
 rs_gather_matrices                 255 10.0    0.005    0.015    1.285    2.189
 parallel_gemm_fm                  1679  8.2    0.001    0.002    1.995    2.114
 parallel_gemm_fm_cosma            1679  9.2    1.993    2.113    1.993    2.113
 grid_integrate_task_list           255 10.0    0.175    2.086    0.175    2.086
 update_ks_atom                     255  8.7    0.037    0.062    0.968    2.035
 mp_bcast_dm                       5100  9.7    0.931    2.003    0.931    2.003
 dbcsr_multiply_generic            1561 10.3    0.037    0.040    1.899    1.965
 xc_functional_eval                1096 10.9    0.001    0.003    0.865    1.819
 pbe_lda_eval                      1096 11.9    0.864    1.816    0.864    1.816
 dbcsr_complete_redistribute       3762 10.5    0.090    0.134    1.652    1.807
 pw_axpy                           2813 10.7    1.505    1.761    1.505    1.761
 pw_zero                           2796 10.6    1.409    1.661    1.409    1.661
 calculate_xc_2nd_deriv_atom        180  9.0    0.060    0.547    0.119    1.632
 pw_copy_from_array                2629 12.8    1.063    1.428    1.063    1.428
 cp_dbcsr_sm_fm_multiply_core      1126  9.6    0.002    0.002    1.330    1.396
 integrate_four_center_main         435 10.8    0.042    0.076    1.029    1.252
 transfer_rs2pw_10                  257 11.8    0.424    0.591    1.090    1.206
 integrate_four_center_bin        29978 11.8    0.987    1.202    0.987    1.202
 qs_scf_new_mos                      75  5.0    0.001    0.001    1.171    1.185
 fft_wrap_pw1pw2_30                 512 11.9    0.013    0.017    0.934    1.183
 gaVxcgb_GC                         510  9.7    0.030    1.151    0.030    1.151
 mp_alltoall_z11v                  1024 14.9    0.878    1.117    0.878    1.117
 copy_fm_to_dbcsr                  2537  9.6    0.006    0.007    0.963    1.107
 transfer_pw2rs_10                  255 12.0    0.297    0.331    1.020    1.099
 mp_alltoall_i22                   4986 11.4    0.972    1.065    0.972    1.065
 copy_dbcsr_to_fm                  1223  9.3    0.009    0.010    0.992    1.039
 mp_sum_dv                        22960  8.9    0.953    0.992    0.953    0.992
 mp_rank_compare                   5190 14.1    0.742    0.959    0.742    0.959
 calculate_rho_atom_coeff           257  8.8    0.055    0.107    0.946    0.954
 eigensolver_symm                    75  6.0    0.006    0.007    0.898    0.909
 calculate_rho_atom                 768  9.7    0.332    0.890    0.332    0.890
 cp_fm_diag_elpa                    126  7.2    0.000    0.000    0.878    0.888
 cp_fm_diag_elpa_base               126  8.2    0.849    0.856    0.861    0.863
 mp_irecv_dm3                     10252 12.8    0.282    0.832    0.282    0.832
 multiply_cannon                   1561 11.3    0.096    0.118    0.755    0.824
 cp_dbcsr_plus_fm_fm_t              255  8.4    0.002    0.002    0.756    0.778
 tddfpt_print_nto_analysis            1  6.0    0.002    0.002    0.755    0.755
 prepare_dr1dr                      900 11.1    0.552    0.743    0.552    0.743
 tddfpt_orthonormalize_psi1_psi      10  6.9    0.010    0.011    0.728    0.728
 yz_to_xz                           510 14.0    0.036    0.073    0.543    0.719
 tddfpt_compute_residual_vects        8  7.0    0.000    0.000    0.657    0.657
 offload_free_buffer                263 10.2    0.498    0.642    0.498    0.642
 multiply_cannon_loop              1561 12.3    0.097    0.101    0.506    0.579
 make_m2s                          3122 11.3    0.028    0.029    0.550    0.575
 calculate_vxc_atom                  75  8.0    0.028    0.122    0.537    0.538
 mp_sum_l                          5985 10.6    0.502    0.536    0.502    0.536
 fft_wrap_pw1pw2_10                 512 11.9    0.004    0.005    0.431    0.526
 make_images                       3122 12.3    0.081    0.105    0.482    0.503
 xz_to_yz                           514 13.8    0.027    0.032    0.399    0.491
 integrate_four_center_getP         435 10.8    0.068    0.076    0.472    0.491
 calc_screening_functions             1 10.0    0.228    0.233    0.447    0.456
 mp_isendrecv_dv                 263580 12.3    0.227    0.424    0.227    0.424
 tddfpt_construct_ground_state_       1  6.0    0.000    0.000    0.390    0.402
 qs_energies_init_hamiltonians        1  3.0    0.000    0.000    0.391    0.391
 tddfpt_apply_energy_diff             9  8.0    0.000    0.000    0.377    0.378
 init_scf_run                         1  3.0    0.000    0.000    0.377    0.377
 cp_fm_trace_a1b1t1_aa            16500  8.0    0.028    0.033    0.354    0.367
 scf_env_initial_rho_setup            1  4.0    0.000    0.000    0.367    0.367
 powell_optimize                 240514 11.0    0.350    0.363    0.350    0.363
 mp_isend_dv                     148752 13.5    0.177    0.360    0.177    0.360
 cp_fm_geeig                         20  7.0    0.001    0.001    0.357    0.358
 integrate_four_center_dist_KS      435 10.8    0.067    0.077    0.322    0.325
 make_images_sizes                 3122 13.3    0.002    0.002    0.280    0.300
 mp_alltoall_i44                   3122 14.3    0.278    0.298    0.278    0.298
 scale_and_distribute               510 11.4    0.195    0.277    0.195    0.277
 build_core_hamiltonian_matrix        1  4.0    0.000    0.000    0.277    0.277
 overlap_condnum                      1  5.0    0.000    0.000    0.276    0.276
 calc_pair_dist_radii                 1 10.0    0.120    0.142    0.251    0.274
 mp_cart_sub                       2450 11.3    0.263    0.266    0.263    0.266
 tddfpt_orthogonalize_psi1_psi0      10  6.9    0.000    0.000    0.238    0.260
 multiply_cannon_metrocomm3       37464 13.3    0.052    0.055    0.158    0.257
 dbcsr_desymmetrize_deep           1224 10.3    0.018    0.021    0.212    0.256
 arnoldi_conjugate_gradient           5  6.0    0.006    0.007    0.255    0.255
 xc_2nd_deriv_of_r                  720 10.0    0.001    0.032    0.007    0.239
 mp_alltoall_i11v                 12510 11.5    0.120    0.199    0.120    0.199
 tddfpt_is_nonorthogonal_psi1_p       8  7.0    0.000    0.000    0.199    0.199
 mp_cart_create                    1993 10.7    0.181    0.193    0.183    0.196
 calculate_dm_sparse                 75  6.0    0.000    0.000    0.175    0.190
 rs_grid_create                     261 10.3    0.001    0.002    0.016    0.178
 offload_create_buffer              263 11.3    0.014    0.176    0.014    0.176
 create_kernel_env                    1  6.0    0.000    0.000    0.148    0.171
 xc_prep_2nd_deriv                    1  7.0    0.000    0.000    0.148    0.171
 dbcsr_finalize                   10483 11.4    0.020    0.030    0.116    0.163
 pw_scale                           660  9.5    0.107    0.159    0.107    0.159
 dbcsr_sym_matrix_vector_mult      1955  7.0    0.014    0.015    0.147    0.159
 mp_irecv_dv                     147266 13.5    0.088    0.157    0.088    0.157
 cube_transpose_2                   514 13.8    0.009    0.011    0.087    0.157
 create_qs_kind_set                   1  2.0    0.000    0.000    0.156    0.157
 read_qs_kind                         4  3.0    0.039    0.062    0.156    0.157
 cube_transpose_1                   510 14.0    0.008    0.016    0.082    0.147
 write_mo_set_to_restart             75  5.0    0.001    0.092    0.084    0.137
 cp_fm_write_unformatted             24  7.0    0.133    0.134    0.133    0.134
 mp_allgather_i34                  1561 12.3    0.105    0.132    0.105    0.132
 multiply_cannon_metrocomm4       35903 13.3    0.053    0.061    0.097    0.130
 dbcsr_merge_all                   8614 12.4    0.052    0.101    0.075    0.123
 parser_read_line                 16136  4.0    0.003    0.003    0.117    0.118
 parser_read_line_low                29  5.0    0.002    0.054    0.114    0.115
 multiply_cannon_metrocomm2       32781 13.3    0.048    0.056    0.080    0.115
 qs_env_update_s_mstruct              1  4.0    0.000    0.000    0.113    0.113
 broadcast_input_information         29  6.0    0.008    0.009    0.112    0.113
 calculate_rho_core                   1  5.0    0.001    0.002    0.100    0.109
 calculate_rho0_atom               1024  9.7    0.101    0.107    0.101    0.107
 dbcsr_create_new                 36545 11.3    0.063    0.073    0.086    0.096
 make_images_data                  3122 13.3    0.020    0.027    0.056    0.095
 multiply_cannon_metrocomm1       37464 13.3    0.020    0.021    0.047    0.091
 qs_init_subsys                       1  2.0    0.001    0.001    0.090    0.090
 mp_bcast_i_src                     116  7.0    0.086    0.090    0.086    0.090
 qs_env_setup                         1  3.0    0.000    0.000    0.086    0.087
 qs_env_rebuild_pw_env                2  3.5    0.000    0.000    0.086    0.086
 pw_env_rebuild                       1  5.0    0.000    0.000    0.086    0.086
 rs_scatter_matrices                257  9.8    0.002    0.005    0.007    0.085
 write_mo_set_low                     4  6.0    0.000    0.000    0.083    0.084
 cp_fm_triangular_invert             20  8.0    0.083    0.083    0.083    0.083
 scf_post_calculation_gpw             1  3.0    0.000    0.000    0.080    0.080
 write_available_results              1  4.0    0.000    0.000    0.080    0.080
 write_mo_free_results                1  5.0    0.002    0.003    0.080    0.080
 cp_fm_cholesky_decompose            20  8.0    0.077    0.079    0.077    0.079
 pw_grid_setup                        4  6.0    0.000    0.000    0.079    0.079
 pw_grid_setup_internal               4  7.0    0.001    0.002    0.079    0.079
 mp_bcast_b_src                     201  8.0    0.073    0.079    0.073    0.079
 vxc_of_r_new                       300  9.0    0.000    0.007    0.002    0.074
 multiply_cannon_multrec          37464 13.3    0.023    0.068    0.026    0.072
 external_control                    75  5.0    0.000    0.067    0.071    0.071
 dbcsr_rep_row_to_rep_col_vec      1955  8.0    0.005    0.005    0.032    0.067
 hybrid_alltoall_any               4346 13.5    0.020    0.024    0.036    0.064
 dbcsr_col_vec_to_rep_row          1955  8.0    0.006    0.007    0.047    0.064
 dbcsr_add_d                       2990  7.1    0.001    0.002    0.013    0.064
 integrate_four_center_load         435 10.8    0.001    0.011    0.040    0.063
 dbcsr_add_anytype                 2990  8.1    0.002    0.009    0.012    0.062
 tddfpt_write_restart                 1  6.0    0.000    0.048    0.050    0.056
 tddfpt_compute_ritz_vects            9  7.0    0.004    0.004    0.053    0.054
 hfx_load_balance                     1 11.0    0.000    0.000    0.040    0.054
 copy_fm_to_dbcsr_bc               2537 10.6    0.013    0.016    0.046    0.053
 dbcsr_iterator_start             49746 10.7    0.032    0.039    0.041    0.051
 pw_grid_sort                         4  8.0    0.035    0.035    0.048    0.051
 cp_fm_symm                          75  7.0    0.046    0.048    0.046    0.048
 mp_max_d                           237  8.3    0.034    0.043    0.034    0.043
 hfx_load_balance_range               1 12.0    0.000    0.000    0.027    0.041
 mp_cart_rank                    196256 10.9    0.032    0.040    0.032    0.040
 dbcsr_copy                       11705  8.6    0.016    0.019    0.037    0.040
 cp_fm_triangular_multiply           60  8.0    0.039    0.039    0.039    0.039
 dbcsr_special_finalize            6244 13.3    0.009    0.010    0.031    0.039
 dbcsr_work_create                16082 12.4    0.018    0.023    0.027    0.036
 qs_create_task_list                  1  5.0    0.000    0.000    0.013    0.036
 generate_qs_task_list                1  6.0    0.000    0.000    0.013    0.036
 hirshfeld_integration                1  6.0    0.001    0.004    0.036    0.036
 dbcsr_data_new                  117086 12.5    0.031    0.036    0.031    0.036
 distribute_tasks                     1  7.0    0.000    0.000    0.012    0.035
 -------------------------------------------------------------------------------

 The number of warnings for this run is : 1
 
 -------------------------------------------------------------------------------
  **** **** ******  **  PROGRAM ENDED AT                 2025-03-28 17:06:47.038
 ***** ** ***  *** **   PROGRAM RAN ON                     n2cn0402.ab2021.local
 **    ****   ******    PROGRAM RAN BY                                  metdyn02
 ***** **    ** ** **   PROGRAM PROCESS ID                               1608514
  **** **  *******  **  PROGRAM STOPPED IN /scratch/hpc-prf-metdyn/metdyn02_Remi
                                           /10_MOL/05_MOL/aUKBqsEOTmq69kFe5R_nOg
                                           /5k_set_final_qzvp/GODKEQ/SZVSR/TDDFT
                                           /1e-4
