 DBCSR| CPU Multiplication driver                                           XSMM (U)
 DBCSR| Multrec recursion limit                                              512 (U)
 DBCSR| Multiplication stack size                                           1000 (D)
 DBCSR| Maximum elements for images                                    UNLIMITED (U)
 DBCSR| Multiplicative factor virtual images                                   1 (U)
 DBCSR| Use multiplication densification                                       T (D)
 DBCSR| Multiplication size stacks                                             3 (U)
 DBCSR| Use memory pool for CPU allocation                                     F (U)
 DBCSR| Number of 3D layers                                               SINGLE (U)
 DBCSR| Use MPI memory allocation                                              F (U)
 DBCSR| Use RMA algorithm                                                      F (U)
 DBCSR| Use Communication thread                                               T (U)
 DBCSR| Communication thread load                                             60 (D)
 DBCSR| MPI: My process id                                                     0
 DBCSR| MPI: Number of processes                                              80
 DBCSR| OMP: Current number of threads                                         8
 DBCSR| OMP: Max number of threads                                             8
 DBCSR| Split modifier for TAS multiplication algorithm                  1.0E+00 (U)


  **** **** ******  **  PROGRAM STARTED AT               2025-06-03 19:32:06.978
 ***** ** ***  *** **   PROGRAM STARTED ON                 n2cn0663.ab2021.local
 **    ****   ******    PROGRAM STARTED BY                              metdyn02
 ***** **    ** ** **   PROGRAM PROCESS ID                               1859668
  **** **  *******  **  PROGRAM STARTED IN /scratch/hpc-prf-metdyn/metdyn02_Remi
                                           /10_MOL/05_MOL/aUKBqsEOTmq69kFe5R_nOg
                                           /5k_set_final_qzvp/LUDFIZ/SZVSR/GW+BS
                                           E/RILIM

 CP2K| version string:                 CP2K version 2025.1 (Development Version)
 CP2K| source code revision number:                                  git:32ddf85
 CP2K| cp2kflags: omp libint fftw3 libxc libgrpp elpa parallel scalapack mpi_f08
 CP2K|             cosma xsmm plumed2 spglib libvori libbqb libvdwxc hdf5
 CP2K| is freely available from                            https://www.cp2k.org/
 CP2K| Program compiled at                         Mon May 19 11:32:37 CEST 2025
 CP2K| Program compiled on                                              n2login1
 CP2K| Program compiled for                                                local
 CP2K| Data directory path    /opt/software/pc2/EB-SW/software/CP2K/2024.1-foss-
 CP2K| Input file name                                                    GW.inp

 GLOBAL| Force Environment number                                              1
 GLOBAL| Basis set file name            /scratch/hpc-prf-metdyn/metdyn02_Remi/BA
 GLOBAL| Potential file name            /pc2/groups/hpc-prf-metdyn/metdyn02_Remi
 GLOBAL| MM Potential file name                                     MM_POTENTIAL
 GLOBAL| Coordinate file name                                      __STD_INPUT__
 GLOBAL| Method name                                                        CP2K
 GLOBAL| Project name                                                       MoS2
 GLOBAL| Run type                                                         ENERGY
 GLOBAL| FFT library                                                       FFTW3
 GLOBAL| Diagonalization library                                            ELPA
 GLOBAL| Cholesky decomposition library                                ScaLAPACK
 GLOBAL| DGEMM library                                                      BLAS
 GLOBAL| Minimum number of eigenvectors for ELPA usage                        16
 GLOBAL| Orthonormality check for eigenvectors                          DISABLED
 GLOBAL| Matrix multiplication library                                     COSMA
 GLOBAL| All-to-all communication in single precision                          F
 GLOBAL| FFTs using library dependent lengths                                  F
 GLOBAL| Grid backend                                                       AUTO
 GLOBAL| Global print level                                               MEDIUM
 GLOBAL| MPI I/O enabled                                                       T
 GLOBAL| Total number of message passing processes                            80
 GLOBAL| Number of threads for this process                                    8
 GLOBAL| This output is from process                                           0
 GLOBAL| OpenMP stack size per thread (OMP_STACKSIZE)                    default
 GLOBAL| CPU model name                          AMD EPYC 7763 64-Core Processor
 GLOBAL| CPUID                                                              1002

 MEMORY| system memory details [Kb]
 MEMORY|                        rank 0           min           max       average
 MEMORY| MemTotal            263897612     263897560     263900016     263897718
 MEMORY| MemFree             250022508     242271040     250029860     246638136
 MEMORY| Buffers                 38160         11360        128572         53042
 MEMORY| Cached                9276044       8926960      16138280      12014653
 MEMORY| Slab                  1506596       1506596       2554380       1943414
 MEMORY| SReclaimable           213120        213120        821156        477240
 MEMORY| MemLikelyFree       259549832     258496592     259549832     259183072


 *** Fundamental physical constants (SI units) ***

 *** Literature: B. J. Mohr and B. N. Taylor,
 ***             CODATA recommended values of the fundamental physical
 ***             constants: 2006, Web Version 5.1
 ***             http://physics.nist.gov/constants

 Speed of light in vacuum [m/s]                             2.99792458000000E+08
 Magnetic constant or permeability of vacuum [N/A**2]       1.25663706143592E-06
 Electric constant or permittivity of vacuum [F/m]          8.85418781762039E-12
 Planck constant (h) [J*s]                                  6.62606896000000E-34
 Planck constant (h-bar) [J*s]                              1.05457162825177E-34
 Elementary charge [C]                                      1.60217648700000E-19
 Electron mass [kg]                                         9.10938215000000E-31
 Electron g factor [ ]                                     -2.00231930436220E+00
 Proton mass [kg]                                           1.67262163700000E-27
 Fine-structure constant                                    7.29735253760000E-03
 Rydberg constant [1/m]                                     1.09737315685270E+07
 Avogadro constant [1/mol]                                  6.02214179000000E+23
 Boltzmann constant [J/K]                                   1.38065040000000E-23
 Atomic mass unit [kg]                                      1.66053878200000E-27
 Bohr radius [m]                                            5.29177208590000E-11

 *** Conversion factors ***

 [u] -> [a.u.]                                              1.82288848426455E+03
 [Angstrom] -> [Bohr] = [a.u.]                              1.88972613288564E+00
 [a.u.] = [Bohr] -> [Angstrom]                              5.29177208590000E-01
 [a.u.] -> [s]                                              2.41888432650478E-17
 [a.u.] -> [fs]                                             2.41888432650478E-02
 [a.u.] -> [J]                                              4.35974393937059E-18
 [a.u.] -> [N]                                              8.23872205491840E-08
 [a.u.] -> [K]                                              3.15774647902944E+05
 [a.u.] -> [kJ/mol]                                         2.62549961709828E+03
 [a.u.] -> [kcal/mol]                                       6.27509468713739E+02
 [a.u.] -> [Pa]                                             2.94210107994716E+13
 [a.u.] -> [bar]                                            2.94210107994716E+08
 [a.u.] -> [atm]                                            2.90362800883016E+08
 [a.u.] -> [eV]                                             2.72113838565563E+01
 [a.u.] -> [Hz]                                             6.57968392072181E+15
 [a.u.] -> [1/cm] (wave numbers)                            2.19474631370540E+05
 [a.u./Bohr**2] -> [1/cm]                                   5.14048714338585E+03
 

 CELL_TOP| Volume [angstrom^3]:                                     27000.000000
 CELL_TOP| Vector a [angstrom    30.000     0.000     0.000   |a| =    30.000000
 CELL_TOP| Vector b [angstrom     0.000    30.000     0.000   |b| =    30.000000
 CELL_TOP| Vector c [angstrom     0.000     0.000    30.000   |c| =    30.000000
 CELL_TOP| Angle (b,c), alpha [degree]:                                90.000000
 CELL_TOP| Angle (a,c), beta  [degree]:                                90.000000
 CELL_TOP| Angle (a,b), gamma [degree]:                                90.000000
 CELL_TOP| Numerically orthorhombic:                                         YES
 CELL_TOP| Periodicity                                                      NONE

 GENERATE|  Preliminary Number of Bonds generated:                             0
 GENERATE|  Achieved consistency in connectivity generation.

 CELL| Volume [angstrom^3]:                                         27000.000000
 CELL| Vector a [angstrom]:      30.000     0.000     0.000   |a| =    30.000000
 CELL| Vector b [angstrom]:       0.000    30.000     0.000   |b| =    30.000000
 CELL| Vector c [angstrom]:       0.000     0.000    30.000   |c| =    30.000000
 CELL| Angle (b,c), alpha [degree]:                                    90.000000
 CELL| Angle (a,c), beta  [degree]:                                    90.000000
 CELL| Angle (a,b), gamma [degree]:                                    90.000000
 CELL| Numerically orthorhombic:                                             YES
 CELL| Periodicity                                                          NONE

 CELL_REF| Volume [angstrom^3]:                                     27000.000000
 CELL_REF| Vector a [angstrom    30.000     0.000     0.000   |a| =    30.000000
 CELL_REF| Vector b [angstrom     0.000    30.000     0.000   |b| =    30.000000
 CELL_REF| Vector c [angstrom     0.000     0.000    30.000   |c| =    30.000000
 CELL_REF| Angle (b,c), alpha [degree]:                                90.000000
 CELL_REF| Angle (a,c), beta  [degree]:                                90.000000
 CELL_REF| Angle (a,b), gamma [degree]:                                90.000000
 CELL_REF| Numerically orthorhombic:                                         YES
 CELL_REF| Periodicity                                                      NONE

 *******************************************************************************
 *******************************************************************************
 **                                                                           **
 **     #####                         ##              ##                      **
 **    ##   ##            ##          ##              ##                      **
 **   ##     ##                       ##            ######                    **
 **   ##     ##  ##   ##  ##   #####  ##  ##   ####   ##    #####    #####    **
 **   ##     ##  ##   ##  ##  ##      ## ##   ##      ##   ##   ##  ##   ##   **
 **   ##  ## ##  ##   ##  ##  ##      ####     ###    ##   ######   ######    **
 **    ##  ###   ##   ##  ##  ##      ## ##      ##   ##   ##       ##        **
 **     #######   #####   ##   #####  ##  ##  ####    ##    #####   ##        **
 **           ##                                                    ##        **
 **                                                                           **
 **                                                ... make the atoms dance   **
 **                                                                           **
 **            Copyright (C) by CP2K developers group (2000-2025)             **
 **                      J. Chem. Phys. 152, 194103 (2020)                    **
 **                                                                           **
 *******************************************************************************

 DFT| Spin restricted Kohn-Sham (RKS) calculation                            RKS
 DFT| Multiplicity                                                             1
 DFT| Number of spin states                                                    1
 DFT| Charge                                                                   0
 DFT| Self-interaction correction (SIC)                                       NO
 DFT| Cutoffs: density                                              1.000000E-10
 DFT|          gradient                                             1.000000E-10
 DFT|          tau                                                  1.000000E-10
 DFT|          cutoff_smoothing_range                               0.000000E+00
 DFT| XC density smoothing                                                  NONE
 DFT| XC derivatives                                                          PW

 FUNCTIONAL| PBE:
 FUNCTIONAL| J.P.Perdew, K.Burke, M.Ernzerhof, Phys. Rev. Letter, vol. 77, n 18,
 FUNCTIONAL|  pp. 3865-3868, (1996)sx=0.750sc=1.000{spin unpolarized}           


 QS| Method:                                                                GAPW
 QS| Density plane wave grid type                        NON-SPHERICAL FULLSPACE
 QS| Number of grid levels:                                                    4
 QS| Density cutoff [a.u.]:                                                250.0
 QS| Multi grid cutoff [a.u.]: 1) grid level                               250.0
 QS|                           2) grid level                                83.3
 QS|                           3) grid level                                27.8
 QS|                           4) grid level                                 9.3
 QS| Grid level progression factor:                                          3.0
 QS| Relative density cutoff [a.u.]:                                        50.0
 QS| Interaction thresholds: eps_pgf_orb:                                1.0E-12
 QS|                         eps_filter_matrix:                          0.0E+00
 QS|                         eps_core_charge:                            1.0E-14
 QS|                         eps_rho_gspace:                             1.0E-12
 QS|                         eps_rho_rspace:                             1.0E-12
 QS|                         eps_gvg_rspace:                             1.0E-06
 QS|                         eps_ppl:                                    1.0E-02
 QS|                         eps_ppnl:                                   1.0E-08
 QS| GAPW|      One center basis from orbital basis primitives
 QS| GAPW|                   eps_fit:                                    1.0E-04
 QS| GAPW|                   eps_iso:                                    1.0E-12
 QS| GAPW|                   eps_svd:                                    1.0E-08
 QS| GAPW|                   eps_cpc:                                    1.0E-12
 QS| GAPW|   atom-r-grid: quadrature:                                     GC_LOG
 QS| GAPW|      atom-s-grid:  max l :                                          4
 QS| GAPW|      max_l_rho0 :                                                   2
 QS| GAPW|      At least one kind is NOT PAW, i.e. it has only soft AO 
 QS| GAPW|      The NOT PAW atoms are treated fully GPW


 ATOMIC KIND INFORMATION

  1. Atomic kind: Cl                                    Number of atoms:       2

     Orbital Basis Set                                         aug-SZV-MOLOPT-ae

       Number of orbital shell sets:                                           3
       Number of orbital shells:                                               8
       Number of primitive Cartesian functions:                               19
       Number of Cartesian basis functions:                                   19
       Number of spherical basis functions:                                   18
       Norm type:                                                              2

       Normalised Cartesian orbitals:

                        Set   Shell   Orbital            Exponent    Coefficient

                          1       1    1s                0.077000       0.000000
                                                         0.155732       0.048775
                                                         0.302177       0.213641
                                                         0.610646       0.074372
                                                         1.364210      -0.160589
                                                         3.637791      -0.133295
                                                        13.583529      -0.040055

                          1       2    2s                0.077000       0.113098
                                                         0.155732      -0.001418
                                                         0.302177      -0.032953
                                                         0.610646       0.000940
                                                         1.364210      -0.000650
                                                         3.637791      -0.006480
                                                        13.583529       0.000000

                          1       3    2px               0.077000       0.000000
                                                         0.155732       0.014765
                                                         0.302177       0.156150
                                                         0.610646       0.318942
                                                         1.364210       0.160173
                                                         3.637791      -0.130999
                                                        13.583529      -0.265378
                          1       3    2py               0.077000       0.000000
                                                         0.155732       0.014765
                                                         0.302177       0.156150
                                                         0.610646       0.318942
                                                         1.364210       0.160173
                                                         3.637791      -0.130999
                                                        13.583529      -0.265378
                          1       3    2pz               0.077000       0.000000
                                                         0.155732       0.014765
                                                         0.302177       0.156150
                                                         0.610646       0.318942
                                                         1.364210       0.160173
                                                         3.637791      -0.130999
                                                        13.583529      -0.265378

                          1       4    3px               0.077000       0.044533
                                                         0.155732       0.031887
                                                         0.302177       0.011087
                                                         0.610646      -0.025806
                                                         1.364210       0.119111
                                                         3.637791       0.324938
                                                        13.583529       0.000000
                          1       4    3py               0.077000       0.044533
                                                         0.155732       0.031887
                                                         0.302177       0.011087
                                                         0.610646      -0.025806
                                                         1.364210       0.119111
                                                         3.637791       0.324938
                                                        13.583529       0.000000
                          1       4    3pz               0.077000       0.044533
                                                         0.155732       0.031887
                                                         0.302177       0.011087
                                                         0.610646      -0.025806
                                                         1.364210       0.119111
                                                         3.637791       0.324938
                                                        13.583529       0.000000

                          1       5    3dx2              0.077000       0.003672
                                                         0.155732       0.001893
                                                         0.302177       0.117944
                                                         0.610646       0.097225
                                                         1.364210       0.782555
                                                         3.637791       0.872236
                                                        13.583529       0.000000
                          1       5    3dxy              0.077000       0.006359
                                                         0.155732       0.003279
                                                         0.302177       0.204285
                                                         0.610646       0.168398
                                                         1.364210       1.355425
                                                         3.637791       1.510758
                                                        13.583529       0.000000
                          1       5    3dxz              0.077000       0.006359
                                                         0.155732       0.003279
                                                         0.302177       0.204285
                                                         0.610646       0.168398
                                                         1.364210       1.355425
                                                         3.637791       1.510758
                                                        13.583529       0.000000
                          1       5    3dy2              0.077000       0.003672
                                                         0.155732       0.001893
                                                         0.302177       0.117944
                                                         0.610646       0.097225
                                                         1.364210       0.782555
                                                         3.637791       0.872236
                                                        13.583529       0.000000
                          1       5    3dyz              0.077000       0.006359
                                                         0.155732       0.003279
                                                         0.302177       0.204285
                                                         0.610646       0.168398
                                                         1.364210       1.355425
                                                         3.637791       1.510758
                                                        13.583529       0.000000
                          1       5    3dz2              0.077000       0.003672
                                                         0.155732       0.001893
                                                         0.302177       0.117944
                                                         0.610646       0.097225
                                                         1.364210       0.782555
                                                         3.637791       0.872236
                                                        13.583529       0.000000

                          2       1    1s              403.972966      -0.851102
                                                        79.956793      -0.895515
                                                        24.850512      -0.268003
                                                         9.560888       0.969714
                                                         4.152300       1.233756
                                                         1.903303       0.277989

                          2       2    2px             403.972966       9.705843
                                                        79.956793      12.841416
                                                        24.850512      13.753103
                                                         9.560888      10.017907
                                                         4.152300       3.598052
                                                         1.903303       0.324102
                          2       2    2py             403.972966       9.705843
                                                        79.956793      12.841416
                                                        24.850512      13.753103
                                                         9.560888      10.017907
                                                         4.152300       3.598052
                                                         1.903303       0.324102
                          2       2    2pz             403.972966       9.705843
                                                        79.956793      12.841416
                                                        24.850512      13.753103
                                                         9.560888      10.017907
                                                         4.152300       3.598052
                                                         1.903303       0.324102

                          3       1    1s             6236.545525       4.583362
                                                      1143.463795       6.917755
                                                       319.899964       9.085929
                                                       109.894271       8.964028
                                                        42.675161       4.956187
                                                        17.575988       0.797366

     RI Auxiliary Basis Set             RI_aug-SZV-MOLOPT-ae_N_RI_112_s_p_d_f_g_

       Number of orbital shell sets:                                          24
       Number of orbital shells:                                              24
       Number of primitive Cartesian functions:                               24
       Number of Cartesian basis functions:                                  167
       Number of spherical basis functions:                                  112
       Norm type:                                                              2

       Normalised Cartesian orbitals:

                        Set   Shell   Orbital            Exponent    Coefficient

                          1       1   20gx4              0.279015       0.033259
                          1       1   20gx3y             0.279015       0.087996
                          1       1   20gx3z             0.279015       0.087996
                          1       1   20gx2y2            0.279015       0.113602
                          1       1   20gx2yz            0.279015       0.196764
                          1       1   20gx2z2            0.279015       0.113602
                          1       1   20gxy3             0.279015       0.087996
                          1       1   20gxy2z            0.279015       0.196764
                          1       1   20gxyz2            0.279015       0.196764
                          1       1   20gxz3             0.279015       0.087996
                          1       1   20gy4              0.279015       0.033259
                          1       1   20gy3z             0.279015       0.087996
                          1       1   20gy2z2            0.279015       0.113602
                          1       1   20gyz3             0.279015       0.087996
                          1       1   20gz4              0.279015       0.033259

                          2       1    8px               0.330765       0.357552
                          2       1    8py               0.330765       0.357552
                          2       1    8pz               0.330765       0.357552

                          3       1    1s                0.339703       0.317128

                          4       1   14dx2              0.562661       0.601646
                          4       1   14dxy              0.562661       1.042081
                          4       1   14dxz              0.562661       1.042081
                          4       1   14dy2              0.562661       0.601646
                          4       1   14dyz              0.562661       1.042081
                          4       1   14dz2              0.562661       0.601646

                          5       1   17fx3              0.671109       0.600120
                          5       1   17fx2y             0.671109       1.341909
                          5       1   17fx2z             0.671109       1.341909
                          5       1   17fxy2             0.671109       1.341909
                          5       1   17fxyz             0.671109       2.324255
                          5       1   17fxz2             0.671109       1.341909
                          5       1   17fy3              0.671109       0.600120
                          5       1   17fy2z             0.671109       1.341909
                          5       1   17fyz2             0.671109       1.341909
                          5       1   17fz3              0.671109       0.600120

                          6       1    2s                0.711571       0.552172

                          7       1    9px               0.728662       0.959616
                          7       1    9py               0.728662       0.959616
                          7       1    9pz               0.728662       0.959616

                          8       1   21gx4              1.066208       1.327398
                          8       1   21gx3y             1.066208       3.511964
                          8       1   21gx3z             1.066208       3.511964
                          8       1   21gx2y2            1.066208       4.533926
                          8       1   21gx2yz            1.066208       7.852990
                          8       1   21gx2z2            1.066208       4.533926
                          8       1   21gxy3             1.066208       3.511964
                          8       1   21gxy2z            1.066208       7.852990
                          8       1   21gxyz2            1.066208       7.852990
                          8       1   21gxz3             1.066208       3.511964
                          8       1   21gy4              1.066208       1.327398
                          8       1   21gy3z             1.066208       3.511964
                          8       1   21gy2z2            1.066208       4.533926
                          8       1   21gyz3             1.066208       3.511964
                          8       1   21gz4              1.066208       1.327398

                          9       1   15dx2              1.149113       2.099155
                          9       1   15dxy              1.149113       3.635843
                          9       1   15dxz              1.149113       3.635843
                          9       1   15dy2              1.149113       2.099155
                          9       1   15dyz              1.149113       3.635843
                          9       1   15dz2              1.149113       2.099155

                         10       1   18fx3              1.633659       4.441887
                         10       1   18fx2y             1.633659       9.932362
                         10       1   18fx2z             1.633659       9.932362
                         10       1   18fxy2             1.633659       9.932362
                         10       1   18fxyz             1.633659      17.203356
                         10       1   18fxz2             1.633659       9.932362
                         10       1   18fy3              1.633659       4.441887
                         10       1   18fy2z             1.633659       9.932362
                         10       1   18fyz2             1.633659       9.932362
                         10       1   18fz3              1.633659       4.441887

                         11       1   23hx5              1.666224       3.899222
                         11       1   23hx4y             1.666224      11.697667
                         11       1   23hx4z             1.666224      11.697667
                         11       1   23hx3y2            1.666224      17.868481
                         11       1   23hx3yz            1.666224      30.949117
                         11       1   23hx3z2            1.666224      17.868481
                         11       1   23hx2y3            1.666224      17.868481
                         11       1   23hx2y2z           1.666224      39.955139
                         11       1   23hx2yz2           1.666224      39.955139
                         11       1   23hx2z3            1.666224      17.868481
                         11       1   23hxy4             1.666224      11.697667
                         11       1   23hxy3z            1.666224      30.949117
                         11       1   23hxy2z2           1.666224      39.955139
                         11       1   23hxyz3            1.666224      30.949117
                         11       1   23hxz4             1.666224      11.697667
                         11       1   23hy5              1.666224       3.899222
                         11       1   23hy4z             1.666224      11.697667
                         11       1   23hy3z2            1.666224      17.868481
                         11       1   23hy2z3            1.666224      17.868481
                         11       1   23hyz4             1.666224      11.697667
                         11       1   23hz5              1.666224       3.899222

                         12       1   24ix6              1.924248       5.207825
                         12       1   24ix5y             1.924248      17.272401
                         12       1   24ix5z             1.924248      17.272401
                         12       1   24ix4y2            1.924248      29.916676
                         12       1   24ix4yz            1.924248      51.817204
                         12       1   24ix4z2            1.924248      29.916676
                         12       1   24ix3y3            1.924248      35.397889
                         12       1   24ix3y2z           1.924248      79.152086
                         12       1   24ix3yz2           1.924248      79.152086
                         12       1   24ix3z3            1.924248      35.397889
                         12       1   24ix2y4            1.924248      29.916676
                         12       1   24ix2y3z           1.924248      79.152086
                         12       1   24ix2y2z2          1.924248     102.184904
                         12       1   24ix2yz3           1.924248      79.152086
                         12       1   24ix2z4            1.924248      29.916676
                         12       1   24ixy5             1.924248      17.272401
                         12       1   24ixy4z            1.924248      51.817204
                         12       1   24ixy3z2           1.924248      79.152086
                         12       1   24ixy2z3           1.924248      79.152086
                         12       1   24ixyz4            1.924248      51.817204
                         12       1   24ixz5             1.924248      17.272401
                         12       1   24iy6              1.924248       5.207825
                         12       1   24iy5z             1.924248      17.272401
                         12       1   24iy4z2            1.924248      29.916676
                         12       1   24iy3z3            1.924248      35.397889
                         12       1   24iy2z4            1.924248      29.916676
                         12       1   24iyz5             1.924248      17.272401
                         12       1   24iz6              1.924248       5.207825

                         13       1   22gx4              2.220982       9.986982
                         13       1   22gx3y             2.220982      26.423072
                         13       1   22gx3z             2.220982      26.423072
                         13       1   22gx2y2            2.220982      34.112039
                         13       1   22gx2yz            2.220982      59.083785
                         13       1   22gx2z2            2.220982      34.112039
                         13       1   22gxy3             2.220982      26.423072
                         13       1   22gxy2z            2.220982      59.083785
                         13       1   22gxyz2            2.220982      59.083785
                         13       1   22gxz3             2.220982      26.423072
                         13       1   22gy4              2.220982       9.986982
                         13       1   22gy3z             2.220982      26.423072
                         13       1   22gy2z2            2.220982      34.112039
                         13       1   22gyz3             2.220982      26.423072
                         13       1   22gz4              2.220982       9.986982

                         14       1    3s                2.450225       1.395772

                         15       1   10px               3.102999       5.870393
                         15       1   10py               3.102999       5.870393
                         15       1   10pz               3.102999       5.870393

                         16       1   19fx3              7.124016     122.063406
                         16       1   19fx2y             7.124016     272.942072
                         16       1   19fx2z             7.124016     272.942072
                         16       1   19fxy2             7.124016     272.942072
                         16       1   19fxyz             7.124016     472.749537
                         16       1   19fxz2             7.124016     272.942072
                         16       1   19fy3              7.124016     122.063406
                         16       1   19fy2z             7.124016     272.942072
                         16       1   19fyz2             7.124016     272.942072
                         16       1   19fz3              7.124016     122.063406

                         17       1    4s                8.846809       3.655948

                         18       1   11px              11.089446      28.845456
                         18       1   11py              11.089446      28.845456
                         18       1   11pz              11.089446      28.845456

                         19       1   16dx2             26.850040     521.270449
                         19       1   16dxy             26.850040     902.866903
                         19       1   16dxz             26.850040     902.866903
                         19       1   16dy2             26.850040     521.270449
                         19       1   16dyz             26.850040     902.866903
                         19       1   16dz2             26.850040     521.270449

                         20       1    5s               32.149471       9.622556

                         21       1   12px              38.748652     137.803687
                         21       1   12py              38.748652     137.803687
                         21       1   12pz              38.748652     137.803687

                         22       1    6s              116.893242      25.336822

                         23       1   13px             135.032822     656.129050
                         23       1   13py             135.032822     656.129050
                         23       1   13pz             135.032822     656.129050

                         24       1    7s              425.072226      66.720169

       Atomic covalent radius [Angstrom]:                                  0.990

       Atomic van der Waals radius [Angstrom]:                             1.750

     The atoms of this atomic kind are PAW atoms (GAPW):
       Hard Gaussian function radius:                                      1.512
       Rho0 radius:                                                        1.512
       Maximum GTO radius used for PAW projector construction:            24.566

     GAPW Soft Basis Set                                  aug-SZV-MOLOPT-ae_soft

       Number of orbital shell sets:                                           3
       Number of orbital shells:                                               8
       Number of primitive Cartesian functions:                                8
       Number of Cartesian basis functions:                                   19
       Number of spherical basis functions:                                   18
       Norm type:                                                              2

       Normalised Cartesian orbitals:

                        Set   Shell   Orbital            Exponent    Coefficient

                          1       1    1s                0.077000       0.000000
                                                         0.155732       0.048775
                                                         0.302177       0.213641
                                                         0.610646       0.074372
                                                         1.364210      -0.160589
                                                         3.637791      -0.133295

                          1       2    2s                0.077000       0.113098
                                                         0.155732      -0.001418
                                                         0.302177      -0.032953
                                                         0.610646       0.000940
                                                         1.364210      -0.000650
                                                         3.637791      -0.006480

                          1       3    2px               0.077000       0.000000
                                                         0.155732       0.014765
                                                         0.302177       0.156150
                                                         0.610646       0.318942
                                                         1.364210       0.160173
                                                         3.637791      -0.130999
                          1       3    2py               0.077000       0.000000
                                                         0.155732       0.014765
                                                         0.302177       0.156150
                                                         0.610646       0.318942
                                                         1.364210       0.160173
                                                         3.637791      -0.130999
                          1       3    2pz               0.077000       0.000000
                                                         0.155732       0.014765
                                                         0.302177       0.156150
                                                         0.610646       0.318942
                                                         1.364210       0.160173
                                                         3.637791      -0.130999

                          1       4    3px               0.077000       0.044533
                                                         0.155732       0.031887
                                                         0.302177       0.011087
                                                         0.610646      -0.025806
                                                         1.364210       0.119111
                                                         3.637791       0.324938
                          1       4    3py               0.077000       0.044533
                                                         0.155732       0.031887
                                                         0.302177       0.011087
                                                         0.610646      -0.025806
                                                         1.364210       0.119111
                                                         3.637791       0.324938
                          1       4    3pz               0.077000       0.044533
                                                         0.155732       0.031887
                                                         0.302177       0.011087
                                                         0.610646      -0.025806
                                                         1.364210       0.119111
                                                         3.637791       0.324938

                          1       5    3dx2              0.077000       0.003672
                                                         0.155732       0.001893
                                                         0.302177       0.117944
                                                         0.610646       0.097225
                                                         1.364210       0.782555
                                                         3.637791       0.872236
                          1       5    3dxy              0.077000       0.006359
                                                         0.155732       0.003279
                                                         0.302177       0.204285
                                                         0.610646       0.168398
                                                         1.364210       1.355425
                                                         3.637791       1.510758
                          1       5    3dxz              0.077000       0.006359
                                                         0.155732       0.003279
                                                         0.302177       0.204285
                                                         0.610646       0.168398
                                                         1.364210       1.355425
                                                         3.637791       1.510758
                          1       5    3dy2              0.077000       0.003672
                                                         0.155732       0.001893
                                                         0.302177       0.117944
                                                         0.610646       0.097225
                                                         1.364210       0.782555
                                                         3.637791       0.872236
                          1       5    3dyz              0.077000       0.006359
                                                         0.155732       0.003279
                                                         0.302177       0.204285
                                                         0.610646       0.168398
                                                         1.364210       1.355425
                                                         3.637791       1.510758
                          1       5    3dz2              0.077000       0.003672
                                                         0.155732       0.001893
                                                         0.302177       0.117944
                                                         0.610646       0.097225
                                                         1.364210       0.782555
                                                         3.637791       0.872236

                          2       1    1s                4.152300       0.000000
                                                         1.903303       0.277989

                          2       2    2px               4.152300       3.598052
                                                         1.903303       0.324102
                          2       2    2py               4.152300       3.598052
                                                         1.903303       0.324102
                          2       2    2pz               4.152300       3.598052
                                                         1.903303       0.324102

                          3       1    1s         

     AE Potential information for                                            ALL

       Description:                                       All-electron potential
                                          Krack, Parrinello, PCCP 2, 2105 (2000)

       Gaussian exponent of the core charge distribution:               2.974420
       Electronic configuration (s p d ...):                           6  11   0

  2. Atomic kind: H                                     Number of atoms:       8

     Orbital Basis Set                                      aug-SZV-MOLOPT-ae-SR

       Number of orbital shell sets:                                           1
       Number of orbital shells:                                               4
       Number of primitive Cartesian functions:                                4
       Number of Cartesian basis functions:                                    6
       Number of spherical basis functions:                                    6
       Norm type:                                                              2

       Normalised Cartesian orbitals:

                        Set   Shell   Orbital            Exponent    Coefficient

                          1       1    2s                0.065428       0.000000
                                                         0.168855       0.083474
                                                         0.623914       0.267839
                                                         3.425251       0.276934

                          1       2    3s                0.065428      -0.066952
                                                         0.168855       0.261968
                                                         0.623914       0.081548
                                                         3.425251      -0.022414

                          1       3    4s                0.065428       0.165615
                                                         0.168855      -0.226449
                                                         0.623914      -0.005802
                                                         3.425251       0.005451

                          1       4    3px               0.065428       0.053063
                                                         0.168855      -0.030502
                                                         0.623914       0.062721
                                                         3.425251       0.019012
                          1       4    3py               0.065428       0.053063
                                                         0.168855      -0.030502
                                                         0.623914       0.062721
                                                         3.425251       0.019012
                          1       4    3pz               0.065428       0.053063
                                                         0.168855      -0.030502
                                                         0.623914       0.062721
                                                         3.425251       0.019012

     RI Auxiliary Basis Set             RI_aug-SZV-MOLOPT-ae-SR_N_RI_035_s_p_d_f

       Number of orbital shell sets:                                          15
       Number of orbital shells:                                              15
       Number of primitive Cartesian functions:                               15
       Number of Cartesian basis functions:                                   37
       Number of spherical basis functions:                                   35
       Norm type:                                                              2

       Normalised Cartesian orbitals:

                        Set   Shell   Orbital            Exponent    Coefficient

                          1       1    1s                0.236911       0.242019

                          2       1    8px               0.347892       0.380843
                          2       1    8py               0.347892       0.380843
                          2       1    8pz               0.347892       0.380843

                          3       1    2s                0.423897       0.374417

                          4       1    9px               0.493166       0.589089
                          4       1    9py               0.493166       0.589089
                          4       1    9pz               0.493166       0.589089

                          5       1   14dx2              0.625366       0.723843
                          5       1   14dxy              0.625366       1.253733
                          5       1   14dxz              0.625366       1.253733
                          5       1   14dy2              0.625366       0.723843
                          5       1   14dyz              0.625366       1.253733
                          5       1   14dz2              0.625366       0.723843

                          6       1   10px               0.699103       0.911206
                          6       1   10py               0.699103       0.911206
                          6       1   10pz               0.699103       0.911206

                          7       1    3s                0.758464       0.579244

                          8       1   11px               0.991036       1.409457
                          8       1   11py               0.991036       1.409457
                          8       1   11pz               0.991036       1.409457

                          9       1   15dx2              1.286053       2.556305
                          9       1   15dxy              1.286053       4.427650
                          9       1   15dxz              1.286053       4.427650
                          9       1   15dy2              1.286053       2.556305
                          9       1   15dyz              1.286053       4.427650
                          9       1   15dz2              1.286053       2.556305

                         10       1    4s                1.357095       0.896123

                         11       1   12px               1.404875       2.180155
                         11       1   12py               1.404875       2.180155
                         11       1   12pz               1.404875       2.180155

                         12       1   13px               1.991527       3.372273
                         12       1   13py               1.991527       3.372273
                         12       1   13pz               1.991527       3.372273

                         13       1    5s                2.428204       1.386354

                         14       1    6s                4.344704       2.144768

                         15       1    7s                7.773833       3.318077

       Atomic covalent radius [Angstrom]:                                  0.320

       Atomic van der Waals radius [Angstrom]:                             1.090

     AE Potential information for                                            ALL

       Description:                                       All-electron potential
                                          Krack, Parrinello, PCCP 2, 2105 (2000)

       Gaussian exponent of the core charge distribution:              12.500000
       Electronic configuration (s p d ...):                           1   0   0

  3. Atomic kind: C                                     Number of atoms:       8

     Orbital Basis Set                                      aug-SZV-MOLOPT-ae-SR

       Number of orbital shell sets:                                           2
       Number of orbital shells:                                               6
       Number of primitive Cartesian functions:                                7
       Number of Cartesian basis functions:                                   15
       Number of spherical basis functions:                                   14
       Norm type:                                                              2

       Normalised Cartesian orbitals:

                        Set   Shell   Orbital            Exponent    Coefficient

                          1       1    2s                0.114559       0.000000
                                                         0.222290       0.161536
                                                         0.683483       0.214036
                                                         2.941249      -0.160017

                          1       2    3s                0.114559       0.078076
                                                         0.222290       0.130402
                                                         0.683483      -0.084834
                                                         2.941249       0.041379

                          1       3    3px               0.114559       0.000000
                                                         0.222290       0.085276
                                                         0.683483       0.538304
                                                         2.941249       0.856045
                          1       3    3py               0.114559       0.000000
                                                         0.222290       0.085276
                                                         0.683483       0.538304
                                                         2.941249       0.856045
                          1       3    3pz               0.114559       0.000000
                                                         0.222290       0.085276
                                                         0.683483       0.538304
                                                         2.941249       0.856045

                          1       4    4px               0.114559       0.224492
                                                         0.222290      -0.546182
                                                         0.683483       0.918493
                                                         2.941249      -0.348342
                          1       4    4py               0.114559       0.224492
                                                         0.222290      -0.546182
                                                         0.683483       0.918493
                                                         2.941249      -0.348342
                          1       4    4pz               0.114559       0.224492
                                                         0.222290      -0.546182
                                                         0.683483       0.918493
                                                         2.941249      -0.348342

                          1       5    4dx2              0.114559       0.004023
                                                         0.222290       0.096934
                                                         0.683483       0.116751
                                                         2.941249       0.357653
                          1       5    4dxy              0.114559       0.006968
                                                         0.222290       0.167895
                                                         0.683483       0.202218
                                                         2.941249       0.619473
                          1       5    4dxz              0.114559       0.006968
                                                         0.222290       0.167895
                                                         0.683483       0.202218
                                                         2.941249       0.619473
                          1       5    4dy2              0.114559       0.004023
                                                         0.222290       0.096934
                                                         0.683483       0.116751
                                                         2.941249       0.357653
                          1       5    4dyz              0.114559       0.006968
                                                         0.222290       0.167895
                                                         0.683483       0.202218
                                                         2.941249       0.619473
                          1       5    4dz2              0.114559       0.004023
                                                         0.222290       0.096934
                                                         0.683483       0.116751
                                                         2.941249       0.357653

                          2       1    1s               71.616837       2.707814
                                                        13.045096       2.618880
                                                         3.530512       0.816191

     RI Auxiliary Basis Set             RI_aug-SZV-MOLOPT-ae-SR_N_RI_075_s_p_d_f

       Number of orbital shell sets:                                          19
       Number of orbital shells:                                              19
       Number of primitive Cartesian functions:                               19
       Number of Cartesian basis functions:                                   99
       Number of spherical basis functions:                                   75
       Norm type:                                                              2

       Normalised Cartesian orbitals:

                        Set   Shell   Orbital            Exponent    Coefficient

                          1       1    7px               0.280788       0.291348
                          1       1    7py               0.280788       0.291348
                          1       1    7pz               0.280788       0.291348

                          2       1    1s                0.306994       0.293939

                          3       1   12dx2              0.425885       0.369548
                          3       1   12dxy              0.425885       0.640076
                          3       1   12dxz              0.425885       0.640076
                          3       1   12dy2              0.425885       0.369548
                          3       1   12dyz              0.425885       0.640076
                          3       1   12dz2              0.425885       0.369548

                          4       1   15fx3              0.441457       0.233859
                          4       1   15fx2y             0.441457       0.522924
                          4       1   15fx2z             0.441457       0.522924
                          4       1   15fxy2             0.441457       0.522924
                          4       1   15fxyz             0.441457       0.905731
                          4       1   15fxz2             0.441457       0.522924
                          4       1   15fy3              0.441457       0.233859
                          4       1   15fy2z             0.441457       0.522924
                          4       1   15fyz2             0.441457       0.522924
                          4       1   15fz3              0.441457       0.233859

                          5       1    8px               0.477699       0.566087
                          5       1    8py               0.477699       0.566087
                          5       1    8pz               0.477699       0.566087

                          6       1   16fx3              0.901688       1.166355
                          6       1   16fx2y             0.901688       2.608049
                          6       1   16fx2z             0.901688       2.608049
                          6       1   16fxy2             0.901688       2.608049
                          6       1   16fxyz             0.901688       4.517273
                          6       1   16fxz2             0.901688       2.608049
                          6       1   16fy3              0.901688       1.166355
                          6       1   16fy2z             0.901688       2.608049
                          6       1   16fyz2             0.901688       2.608049
                          6       1   16fz3              0.901688       1.166355

                          7       1   18gx4              0.934410       0.923449
                          7       1   18gx3y             0.934410       2.443217
                          7       1   18gx3z             0.934410       2.443217
                          7       1   18gx2y2            0.934410       3.154180
                          7       1   18gx2yz            0.934410       5.463200
                          7       1   18gx2z2            0.934410       3.154180
                          7       1   18gxy3             0.934410       2.443217
                          7       1   18gxy2z            0.934410       5.463200
                          7       1   18gxyz2            0.934410       5.463200
                          7       1   18gxz3             0.934410       2.443217
                          7       1   18gy4              0.934410       0.923449
                          7       1   18gy3z             0.934410       2.443217
                          7       1   18gy2z2            0.934410       3.154180
                          7       1   18gyz3             0.934410       2.443217
                          7       1   18gz4              0.934410       0.923449

                          8       1    2s                0.946862       0.684109

                          9       1    3s                1.268857       0.852059

                         10       1   13dx2              1.288245       2.563934
                         10       1   13dxy              1.288245       4.440865
                         10       1   13dxz              1.288245       4.440865
                         10       1   13dy2              1.288245       2.563934
                         10       1   13dyz              1.288245       4.440865
                         10       1   13dz2              1.288245       2.563934

                         11       1    9px               1.399800       2.170315
                         11       1    9py               1.399800       2.170315
                         11       1    9pz               1.399800       2.170315

                         12       1   19gx4              1.535589       3.619858
                         12       1   19gx3y             1.535589       9.577244
                         12       1   19gx3z             1.535589       9.577244
                         12       1   19gx2y2            1.535589      12.364169
                         12       1   19gx2yz            1.535589      21.415368
                         12       1   19gx2z2            1.535589      12.364169
                         12       1   19gxy3             1.535589       9.577244
                         12       1   19gxy2z            1.535589      21.415368
                         12       1   19gxyz2            1.535589      21.415368
                         12       1   19gxz3             1.535589       9.577244
                         12       1   19gy4              1.535589       3.619858
                         12       1   19gy3z             1.535589       9.577244
                         12       1   19gy2z2            1.535589      12.364169
                         12       1   19gyz3             1.535589       9.577244
                         12       1   19gz4              1.535589       3.619858

                         13       1   14dx2              2.335379       7.261643
                         13       1   14dxy              2.335379      12.577535
                         13       1   14dxz              2.335379      12.577535
                         13       1   14dy2              2.335379       7.261643
                         13       1   14dyz              2.335379      12.577535
                         13       1   14dz2              2.335379       7.261643

                         14       1   17fx3              2.532110      11.906668
                         14       1   17fx2y             2.532110      26.624119
                         14       1   17fx2z             2.532110      26.624119
                         14       1   17fxy2             2.532110      26.624119
                         14       1   17fxyz             2.532110      46.114327
                         14       1   17fxz2             2.532110      26.624119
                         14       1   17fy3              2.532110      11.906668
                         14       1   17fy2z             2.532110      26.624119
                         14       1   17fyz2             2.532110      26.624119
                         14       1   17fz3              2.532110      11.906668

                         15       1   10px               4.817840      10.174323
                         15       1   10py               4.817840      10.174323
                         15       1   10pz               4.817840      10.174323

                         16       1    4s                4.925178       2.356278

                         17       1   11px              16.202890      46.337296
                         17       1   11py              16.202890      46.337296
                         17       1   11pz              16.202890      46.337296

                         18       1    5s               21.643648       7.151678

                         19       1    6s               78.500404      18.795938

       Atomic covalent radius [Angstrom]:                                  0.770

       Atomic van der Waals radius [Angstrom]:                             1.700

     The atoms of this atomic kind are PAW atoms (GAPW):
       Hard Gaussian function radius:                                      1.512
       Rho0 radius:                                                        1.512
       Maximum GTO radius used for PAW projector construction:            24.566

     GAPW Soft Basis Set                               aug-SZV-MOLOPT-ae-SR_soft

       Number of orbital shell sets:                                           2
       Number of orbital shells:                                               6
       Number of primitive Cartesian functions:                                5
       Number of Cartesian basis functions:                                   15
       Number of spherical basis functions:                                   14
       Norm type:                                                              2

       Normalised Cartesian orbitals:

                        Set   Shell   Orbital            Exponent    Coefficient

                          1       1    2s                0.114559       0.000000
                                                         0.222290       0.161536
                                                         0.683483       0.214036
                                                         2.941249      -0.160017

                          1       2    3s                0.114559       0.078076
                                                         0.222290       0.130402
                                                         0.683483      -0.084834
                                                         2.941249       0.041379

                          1       3    3px               0.114559       0.000000
                                                         0.222290       0.085276
                                                         0.683483       0.538304
                                                         2.941249       0.856045
                          1       3    3py               0.114559       0.000000
                                                         0.222290       0.085276
                                                         0.683483       0.538304
                                                         2.941249       0.856045
                          1       3    3pz               0.114559       0.000000
                                                         0.222290       0.085276
                                                         0.683483       0.538304
                                                         2.941249       0.856045

                          1       4    4px               0.114559       0.224492
                                                         0.222290      -0.546182
                                                         0.683483       0.918493
                                                         2.941249      -0.348342
                          1       4    4py               0.114559       0.224492
                                                         0.222290      -0.546182
                                                         0.683483       0.918493
                                                         2.941249      -0.348342
                          1       4    4pz               0.114559       0.224492
                                                         0.222290      -0.546182
                                                         0.683483       0.918493
                                                         2.941249      -0.348342

                          1       5    4dx2              0.114559       0.004023
                                                         0.222290       0.096934
                                                         0.683483       0.116751
                                                         2.941249       0.357653
                          1       5    4dxy              0.114559       0.006968
                                                         0.222290       0.167895
                                                         0.683483       0.202218
                                                         2.941249       0.619473
                          1       5    4dxz              0.114559       0.006968
                                                         0.222290       0.167895
                                                         0.683483       0.202218
                                                         2.941249       0.619473
                          1       5    4dy2              0.114559       0.004023
                                                         0.222290       0.096934
                                                         0.683483       0.116751
                                                         2.941249       0.357653
                          1       5    4dyz              0.114559       0.006968
                                                         0.222290       0.167895
                                                         0.683483       0.202218
                                                         2.941249       0.619473
                          1       5    4dz2              0.114559       0.004023
                                                         0.222290       0.096934
                                                         0.683483       0.116751
                                                         2.941249       0.357653

                          2       1    1s                3.530512       0.816191

     AE Potential information for                                            ALL

       Description:                                       All-electron potential
                                          Krack, Parrinello, PCCP 2, 2105 (2000)

       Gaussian exponent of the core charge distribution:               4.109048
       Electronic configuration (s p d ...):                           4   2   0

  4. Atomic kind: O                                     Number of atoms:       2

     Orbital Basis Set                                      aug-SZV-MOLOPT-ae-SR

       Number of orbital shell sets:                                           2
       Number of orbital shells:                                               6
       Number of primitive Cartesian functions:                                7
       Number of Cartesian basis functions:                                   15
       Number of spherical basis functions:                                   14
       Norm type:                                                              2

       Normalised Cartesian orbitals:

                        Set   Shell   Orbital            Exponent    Coefficient

                          1       1    1s                0.162492       0.000000
                                                         0.380389       0.241686
                                                         1.169596       0.320234
                                                         5.033151      -0.239413

                          1       2    2s                0.162492       0.120425
                                                         0.380389       0.131001
                                                         1.169596      -0.000041
                                                         5.033151      -0.089217

                          1       3    2px               0.162492       0.000000
                                                         0.380389       0.166903
                                                         1.169596       1.053568
                                                         5.033151       1.675450
                          1       3    2py               0.162492       0.000000
                                                         0.380389       0.166903
                                                         1.169596       1.053568
                                                         5.033151       1.675450
                          1       3    2pz               0.162492       0.000000
                                                         0.380389       0.166903
[...]
 powell_optimize                 509901 11.0    0.736    0.758    0.736    0.758
 transfer_rs2pw_30                   65  9.0    0.272    0.303    0.722    0.750
 mp2_eri_3c_integrate                 1  7.0    0.003    0.004    0.202    0.721
 integrate_set_3c                  5460  8.0    0.174    0.655    0.200    0.718
 pw_gather_p                        648 11.8    0.667    0.710    0.667    0.710
 pw_copy                            970 10.6    0.672    0.704    0.672    0.704
 calc_screening_functions             1 10.0    0.253    0.257    0.678    0.699
 mp_cart_create                     485 10.2    0.570    0.690    0.571    0.691
 dbt_pgrid_create_expert             84 10.8    0.000    0.000    0.550    0.672
 calculate_rho_atom                 195  9.0    0.235    0.658    0.235    0.658
 cp2k_distribution_to_z_slices       65  9.0    0.243    0.270    0.628    0.653
 cp_fm_cholesky_invert              101  8.0    0.630    0.651    0.630    0.651
 mp_sendrecv_dv                   10270 10.0    0.599    0.638    0.599    0.638
 compute_vec_Sigma_x_minus_vxc_       1  4.0    0.000    0.000    0.621    0.621
 mp_isend_dv                      11811 11.8    0.204    0.621    0.204    0.621
 cp_fm_redistribute_end              70  8.0    0.042    0.600    0.043    0.603
 mp_sum_dv                        11165 10.2    0.533    0.571    0.533    0.571
 cp_fm_cholesky_decompose           102  9.0    0.496    0.542    0.496    0.542
 transfer_pw2rs_10                   65 12.0    0.104    0.113    0.501    0.525
 rs_grid_zero                       328 11.1    0.463    0.494    0.463    0.494
 calc_pair_dist_radii                 1 10.0    0.167    0.168    0.478    0.490
 pw_poisson_set                      66  8.9    0.001    0.001    0.442    0.469
 mp_sum_dm                         2409  7.6    0.404    0.468    0.404    0.468
 compute_Erpa_by_freq_int           100  8.0    0.001    0.001    0.465    0.466
 fft_wrap_pw1pw2_90                 130 10.5    0.020    0.021    0.435    0.466
 pw_copy_to_array                   648 11.8    0.379    0.460    0.379    0.460
 qs_energies_init_hamiltonians        1  3.0    0.000    0.000    0.411    0.411
 pw_copy_from_array                 709 12.1    0.329    0.398    0.329    0.398
 pw_poisson_rebuild                  65  9.0    0.000    0.000    0.365    0.378
 ps_wavelet_create                    1 10.0    0.000    0.000    0.365    0.378
 RS_z_slice_distribution              1 11.0    0.254    0.277    0.365    0.378
 build_core_hamiltonian_matrix        1  4.0    0.000    0.000    0.361    0.361
 overlap_condnum                      1  5.0    0.000    0.000    0.359    0.360
 rs_gather_matrices                  65 10.0    0.002    0.003    0.311    0.353
 pw_axpy                            710  9.2    0.321    0.341    0.321    0.341
 grid_integrate_task_list            65 10.0    0.056    0.338    0.056    0.338
 arnoldi_conjugate_gradient           5  6.0    0.007    0.009    0.334    0.334
 pw_integral_ab_c1d_c1d_gs           65  9.0    0.285    0.291    0.319    0.327
 calculate_dm_sparse                 64  6.0    0.000    0.000    0.194    0.259
 cp_dbcsr_plus_fm_fm_t               64  7.0    0.001    0.001    0.193    0.258
 dbcsr_multiply_generic             205  8.0    0.004    0.005    0.207    0.235
 transfer_rs2pw_10                   65  9.0    0.066    0.069    0.215    0.233
 mp_isend_dm3                      2358 11.5    0.037    0.229    0.037    0.229
 init_scf_run                         1  3.0    0.000    0.000    0.221    0.222
 mp2_main_alloc_hfx                   1  4.0    0.119    0.215    0.119    0.215
 mp_isendrecv_dv                  20540 12.0    0.035    0.210    0.035    0.210
 scf_env_initial_rho_setup            1  4.0    0.000    0.000    0.209    0.209
 mp_sum_i                            19  9.5    0.096    0.205    0.096    0.205
 restraint_control                    1  2.0    0.000    0.000    0.096    0.205
 dbcsr_sym_matrix_vector_mult      2255  7.0    0.016    0.018    0.192    0.197
 create_A                             1  8.0    0.002    0.003    0.188    0.191
 dbt_total                            8  8.0    0.000    0.000    0.190    0.190
 dbcsr_complete_redistribute        275  8.5    0.011    0.014    0.151    0.187
 pw_zero                            386 10.3    0.171    0.179    0.171    0.179
 qs_init_subsys                       1  2.0    0.001    0.001    0.175    0.175
 create_B                             1  8.0    0.000    0.000    0.169    0.174
 qs_env_setup                         1  3.0    0.000    0.000    0.171    0.172
 qs_env_rebuild_pw_env                2  3.5    0.000    0.000    0.171    0.172
 pw_env_rebuild                       1  5.0    0.000    0.000    0.171    0.172
 dbt_contract                         4  9.0    0.000    0.000    0.168    0.171
 mp_comm_split_direct                48 14.5    0.150    0.168    0.150    0.168
 cp_fm_symm                          65  7.0    0.161    0.164    0.161    0.164
 cp_fm_syrk                           3  7.0    0.159    0.161    0.159    0.161
 pw_grid_setup                        4  6.0    0.000    0.000    0.159    0.161
 pw_grid_setup_internal               4  7.0    0.002    0.003    0.159    0.160
 fm_general_add_bse                   5 10.2    0.000    0.000    0.153    0.160
 mp2_main_free_hfx                    1  4.0    0.019    0.159    0.019    0.159
 calculate_rho_atom_coeff            65  6.0    0.021    0.026    0.147    0.148
 copy_dbcsr_to_fm                   143  7.0    0.002    0.002    0.139    0.148
 cp_fm_to_fm_submat_general         112 10.1    0.122    0.146    0.122    0.146
 multiply_cannon                    205  9.0    0.009    0.017    0.092    0.134
 cp_fm_uplo_to_full                 174  8.4    0.092    0.130    0.092    0.130
 create_qs_kind_set                   1  2.0    0.000    0.000    0.128    0.129
 read_qs_kind                         4  3.0    0.061    0.070    0.128    0.129
 cp_fm_redistribute_start            70  8.0    0.049    0.052    0.072    0.129
 dbt_tas_multiply                     8 11.5    0.000    0.000    0.127    0.127
 dbt_tas_total                        8 12.5    0.001    0.003    0.126    0.126
 update_ks_atom                      65  8.0    0.017    0.022    0.114    0.125
 dbcsr_add_d                       3432  7.0    0.002    0.002    0.021    0.120
 fft_wrap_pw1pw2_30                 130 10.5    0.004    0.004    0.116    0.120
 dbcsr_add_anytype                 3432  8.0    0.003    0.014    0.020    0.118
 copy_fm_to_dbcsr                   132  8.1    0.000    0.000    0.079    0.117
 pw_grid_sort                         4  8.0    0.082    0.085    0.111    0.116
 multiply_cannon_loop               205 10.0    0.005    0.005    0.072    0.115
 get_2c_integrals                     1  6.0    0.000    0.000    0.073    0.108
 mp_bcast_dm                       1560  9.0    0.097    0.106    0.097    0.106
 Vh_1c_gg_integrals                  65  8.0    0.008    0.095    0.094    0.105
 integrate_four_center_load          65 10.0    0.000    0.000    0.087    0.104
 hfx_load_balance                     1 11.0    0.000    0.000    0.087    0.104
 create_integ_mat                     4  6.0    0.001    0.001    0.098    0.100
 array2fm                             4  7.0    0.000    0.000    0.093    0.096
 mp_max_i                           634  2.7    0.072    0.092    0.072    0.092
 mp_sum_l                          1217  6.7    0.072    0.091    0.072    0.091
 mp_irecv_dv                      11446 11.8    0.012    0.088    0.012    0.088
 self_consistency_check              64  5.0    0.000    0.000    0.059    0.085
 cp_sm_mix                           64  6.0    0.000    0.000    0.059    0.085
 mp_max_d                            66  6.9    0.059    0.085    0.059    0.085
 postprocess_bse                      1  9.0    0.000    0.000    0.082    0.085
 multiply_cannon_metrocomm3        1516 11.1    0.002    0.002    0.032    0.080
 mp_alltoall_i22                    420  9.4    0.035    0.080    0.035    0.080
 dbt_tas_dbm                          8 13.5    0.000    0.000    0.079    0.079
 dbcsr_finalize                    5224 10.6    0.006    0.021    0.027    0.078
 dbcsr_col_vec_to_rep_row          2255  8.0    0.007    0.008    0.070    0.076
 dbt_tas_mm_1N                        8 14.5    0.000    0.000    0.065    0.076
 dbm_multiply                         8 15.5    0.065    0.076    0.065    0.076
 scale_and_distribute               130 10.0    0.055    0.074    0.055    0.074
 make_m2s                           410  9.0    0.003    0.003    0.066    0.072
 write_mo_set_to_restart             64  5.0    0.001    0.047    0.048    0.072
 cholesky_decomp                      1  7.0    0.000    0.000    0.025    0.071
 dbcsr_desymmetrize_deep            145  8.0    0.003    0.004    0.062    0.070
 parser_read_line                 26785  4.0    0.004    0.004    0.068    0.070
 scf_post_calculation_gpw             1  3.0    0.000    0.000    0.066    0.067
 write_available_results              1  4.0    0.000    0.000    0.066    0.067
 write_mo_free_results                1  5.0    0.004    0.005    0.066    0.066
 parser_read_line_low                39  5.0    0.002    0.020    0.064    0.066
 broadcast_input_information         39  6.0    0.006    0.007    0.062    0.064
 abc_contract                      5460  9.0    0.025    0.064    0.025    0.064
 mp_alltoall_i11v                   970  9.5    0.056    0.056    0.056    0.056
 calculate_rho0_atom                260  9.0    0.054    0.055    0.054    0.055
 fft_wrap_pw1pw2_10                 130 10.5    0.001    0.001    0.052    0.055
 hfx_load_balance_redist              1 12.0    0.003    0.003    0.054    0.055
 mp_bcast_dv                       2323  9.0    0.046    0.054    0.046    0.054
 pw_scale                           257  9.5    0.037    0.054    0.037    0.054
 fm_general_add_bse_1_setup           5 11.2    0.049    0.053    0.049    0.053
 mult_B_with_W                        1  8.0    0.000    0.000    0.049    0.050
 dbt_copy                            12 10.0    0.000    0.000    0.042    0.049
 qs_env_update_s_mstruct              1  4.0    0.000    0.000    0.049    0.049
 write_mo_set_low                     4  6.0    0.000    0.000    0.047    0.047
 cp_fm_write_unformatted              4  7.0    0.047    0.047    0.047    0.047
 calculate_rho_core                   1  5.0    0.003    0.004    0.046    0.047
 make_images                        410 10.0    0.008    0.009    0.039    0.046
 dbcsr_rep_row_to_rep_col_vec      2255  8.0    0.006    0.007    0.037    0.044
 compute_2c_integrals                 1  7.0    0.000    0.000    0.031    0.044
 mp_rank_compare                   1357 12.9    0.040    0.044    0.040    0.044
 dbcsr_iterator_start             29490  8.9    0.023    0.033    0.027    0.044
 array2fm_info                        4  8.0    0.040    0.043    0.041    0.044
 mp_bcast_i_src                     156  7.0    0.037    0.044    0.037    0.044
 hfx_load_balance_range               1 12.0    0.000    0.000    0.026    0.044
 get_oscillator_strengths             1 10.0    0.000    0.000    0.041    0.041
 integrate_four_center_dist_KS       65 10.0    0.005    0.009    0.037    0.039
 integrate_four_center_getP          65 10.0    0.005    0.006    0.033    0.038
 mp_bcast_b_src                     135  7.5    0.017    0.037    0.017    0.037
 vxc_of_r_new                       256  9.0    0.000    0.005    0.003    0.037
 hybrid_alltoall_any                555 11.2    0.007    0.014    0.029    0.036
 get_multipoles_mo                    1 10.0    0.000    0.000    0.033    0.036
 multiply_cannon_metrocomm1        1516 11.1    0.001    0.001    0.007    0.035
 dbcsr_merge_all                   4285 11.3    0.009    0.025    0.015    0.034
 Q_trace_and_add_unit_matrix        100  8.0    0.001    0.001    0.023    0.034
 fm_general_add_bse_4_buf_from_       1 10.0    0.029    0.034    0.029    0.034
 dbt_reshape                          8 11.5    0.005    0.008    0.028    0.033
 multiply_cannon_metrocomm4        1311 11.1    0.002    0.002    0.006    0.032
 array2fm_buffer_send                 4  8.0    0.028    0.032    0.028    0.032
 sort_shells                          4  9.0    0.029    0.032    0.029    0.032
 fm_general_add_bse_5_comm_buff       5 11.2    0.000    0.000    0.025    0.032
 communicate_buffer                   5 12.2    0.000    0.000    0.025    0.032
 fm_general_add_bse_4_buf_from_       1 10.0    0.029    0.031    0.029    0.031
 dbcsr_copy                        9923  7.6    0.017    0.018    0.028    0.030
 dbt_tas_estimate_result_nze          4 12.0    0.001    0.003    0.030    0.030
 mixing_init                          1  5.0    0.026    0.028    0.028    0.028
 dbt_remap                            8 10.0    0.001    0.001    0.027    0.027
 dbcsr_work_create                 5096 10.5    0.005    0.018    0.008    0.027
 mp_waitall_2                        48 15.8    0.019    0.027    0.019    0.027
 mp_isendrecv_lv                    158 13.0    0.001    0.026    0.001    0.026
 dbt_distribution_new_expert         76 10.1    0.001    0.001    0.025    0.026
 array2fm_fill                        4  8.0    0.004    0.005    0.014    0.025
 dbt_communicate_buffer               8 12.5    0.000    0.001    0.020    0.025
 cp_dbcsr_sm_fm_multiply              3 11.0    0.000    0.000    0.023    0.023
 hirshfeld_integration                1  6.0    0.001    0.008    0.022    0.023
 dbcsr_iterator_stop              29490  8.9    0.013    0.018    0.016    0.022
 mp_maxloc_dv                      1515  1.0    0.019    0.021    0.019    0.021
 dbcsr_work_destroy_all            5096 11.5    0.004    0.014    0.006    0.021
 mp_bcast_am_src                     39  7.0    0.017    0.021    0.018    0.021
 mulliken_population_analysis         1  6.0    0.000    0.000    0.021    0.021
 mp_wait                             97  9.0    0.010    0.021    0.010    0.021
 multiply_cannon_multrec           1516 11.1    0.018    0.020    0.018    0.020
 dbcsr_create_new                 13077  9.1    0.014    0.015    0.019    0.020
 xc_pw_smooth                        64 10.0    0.000    0.000    0.019    0.020
 rs_scatter_matrices                 65  7.0    0.001    0.001    0.020    0.020
 dbt_split_blocks_generic            20  8.8    0.004    0.006    0.019    0.020
 dbt_tas_distribution_new            92 11.7    0.010    0.010    0.019    0.019
 pw_grid_remap                        4  8.0    0.003    0.003    0.015    0.019
 ao_to_mo_and_store_B_mult_bse_      17  7.0    0.000    0.000    0.015    0.019
 ao_to_mo_and_store_B_mult_gw_1      17  7.0    0.000    0.000    0.017    0.019
 calculate_hirshfeld_normalizat       1  6.0    0.001    0.008    0.018    0.019
 mp_sum_iv                          395  9.6    0.013    0.018    0.013    0.018
 make_images_data                   410 11.0    0.002    0.003    0.012    0.018
 cp_fm_create                       337  8.0    0.013    0.017    0.013    0.017
 dbcsr_crop_matrix                  384 10.0    0.001    0.001    0.016    0.017
 offload_free_buffer                 73  8.3    0.012    0.017    0.012    0.017
 mp_sum_im3                           4  9.0    0.012    0.016    0.012    0.016
 cp_dbcsr_sm_fm_multiply_core         3 12.0    0.000    0.000    0.008    0.016
 dbt_tas_replicate                    8 13.5    0.004    0.005    0.014    0.015
 ao_to_mo_and_store_B_mult_bse_      17  7.0    0.000    0.000    0.011    0.015
 dbcsr_data_release               83687 10.5    0.008    0.015    0.008    0.015
 pw_grid_assign                       4  8.0    0.013    0.014    0.014    0.015
 mp_cart_sub                        290  9.0    0.014    0.015    0.014    0.015
 ao_to_mo_and_store_B_E_Ex_gw_1      17  7.0    0.006    0.007    0.012    0.014
 create_fast_col_vec_access        4510  8.0    0.009    0.009    0.014    0.014
 dbm_reserve_blocks                  64 13.9    0.009    0.014    0.009    0.014
 dbcsr_data_new                   49680 10.9    0.007    0.014    0.007    0.014
 ao_to_mo_and_store_B_mult_1         17  7.0    0.000    0.000    0.013    0.014
 create_fast_row_vec_access        4510  8.0    0.008    0.009    0.013    0.013
 array2fm_isendrecv                   4  8.0    0.001    0.001    0.009    0.013
 mp_alltoall_i                       37 14.0    0.008    0.013    0.008    0.013
 mp_bcast_av                        758  1.0    0.004    0.006    0.010    0.013
 dbt_tas_reserve_blocks_index        56 12.8    0.000    0.000    0.008    0.013
 invert_mat                           1  7.0    0.000    0.000    0.011    0.013
 dbcsr_copy_submatrix               384 11.0    0.002    0.002    0.012    0.013
 dbt_reserve_blocks_index            36 10.8    0.000    0.000    0.007    0.013
 cp_fm_triangular_invert              1  8.0    0.011    0.013    0.011    0.013
 mp_sum_im                         4085 12.9    0.011    0.012    0.011    0.012
 make_images_sizes                  410 11.0    0.000    0.000    0.010    0.012
 dbt_tas_create_split                44 13.2    0.000    0.000    0.012    0.012
 dbt_tas_create_split_rows_or_c      44 14.2    0.000    0.000    0.012    0.012
 mp_alltoall_i44                    410 12.0    0.009    0.012    0.009    0.012
 dbcsr_iterator_seek              29490  9.9    0.005    0.012    0.005    0.012
 dbt_create_new                      40  9.5    0.000    0.000    0.011    0.011
 reshape_mm_small                     8 13.5    0.001    0.001    0.011    0.011
 dbt_nd_mp_comm                       8 11.0    0.000    0.000    0.006    0.011
 dbcsr_scale_anytype               3433  9.0    0.003    0.003    0.009    0.011
 dbt_split_copyback                   4 10.0    0.005    0.006    0.007    0.011
 dbt_reserve_blocks_index_array      28 10.6    0.000    0.000    0.006    0.011
 truncate_BSE_matrices                1  8.0    0.000    0.000    0.011    0.011
 fm_general_add_bse_2_comm_entr       5 11.2    0.000    0.000    0.006    0.011
 dbcsr_sym_matrix_vector_mult_l    2255  8.0    0.005    0.005    0.010    0.010
 mp_irecv_dm3                      2358 11.5    0.005    0.010    0.005    0.010
 dbt_tas_communicate_buffer          16 16.0    0.000    0.001    0.008    0.010
 compute_2c_integrals_loop_lm         1  8.0    0.000    0.000    0.005    0.010
 mp2_eri_2c_integrate                 1  9.0    0.001    0.002    0.005    0.010
 hfx_create                           1  2.0    0.009    0.010    0.009    0.010
 external_control                    65  5.0    0.000    0.007    0.009    0.010
 integrate_set_2c                  3680 10.0    0.003    0.008    0.004    0.010
 fm_general_add_bse_6_buffer_to       1 10.0    0.007    0.009    0.007    0.009
 mp_isend_im2                       478 13.1    0.004    0.009    0.004    0.009
 calc_fm_mat_S_rpa                  100  9.0    0.005    0.009    0.005    0.009
 compute_max_radius                   1  6.0    0.008    0.008    0.008    0.008
 -------------------------------------------------------------------------------

 The number of warnings for this run is : 1
 
 -------------------------------------------------------------------------------
  **** **** ******  **  PROGRAM ENDED AT                 2025-06-03 19:33:30.990
 ***** ** ***  *** **   PROGRAM RAN ON                     n2cn0663.ab2021.local
 **    ****   ******    PROGRAM RAN BY                                  metdyn02
 ***** **    ** ** **   PROGRAM PROCESS ID                               1859668
  **** **  *******  **  PROGRAM STOPPED IN /scratch/hpc-prf-metdyn/metdyn02_Remi
                                           /10_MOL/05_MOL/aUKBqsEOTmq69kFe5R_nOg
                                           /5k_set_final_qzvp/LUDFIZ/SZVSR/GW+BS
                                           E/RILIM
