 DBCSR| CPU Multiplication driver                                           BLAS (U)
 DBCSR| Multrec recursion limit                                              512 (U)
 DBCSR| Multiplication stack size                                           1000 (D)
 DBCSR| Maximum elements for images                                    UNLIMITED (U)
 DBCSR| Multiplicative factor virtual images                                   1 (U)
 DBCSR| Use multiplication densification                                       T (D)
 DBCSR| Multiplication size stacks                                             3 (U)
 DBCSR| Use memory pool for CPU allocation                                     F (U)
 DBCSR| Number of 3D layers                                               SINGLE (U)
 DBCSR| Use MPI memory allocation                                              F (U)
 DBCSR| Use RMA algorithm                                                      F (U)
 DBCSR| Use Communication thread                                               T (U)
 DBCSR| Communication thread load                                             75 (D)
 DBCSR| MPI: My process id                                                     0
 DBCSR| MPI: Number of processes                                             216
 DBCSR| OMP: Current number of threads                                         4
 DBCSR| OMP: Max number of threads                                             4
 DBCSR| Split modifier for TAS multiplication algorithm                  1.0E+00 (U)


  **** **** ******  **  PROGRAM STARTED AT               2025-03-29 04:17:32.094
 ***** ** ***  *** **   PROGRAM STARTED ON                          i01r07c06s08
 **    ****   ******    PROGRAM STARTED BY                               di38fab
 ***** **    ** ** **   PROGRAM PROCESS ID                               1750648
  **** **  *******  **  PROGRAM STARTED IN /hppfs/scratch/04/di38fab/07_MOL_non_
                                           aug/05_MOL_non_aug/05_MOL/aUKBqsEOTmq
                                           69kFe5R_nOg/5k_set_final_qzvp/SBZSAM/
                                           SZV/GW+BSE

 CP2K| version string:                 CP2K version 2025.1 (Development Version)
 CP2K| source code revision number:                                  git:d2e611a
 CP2K| cp2kflags: omp libint fftw3 libxc parallel scalapack max_contr=4         
 CP2K| is freely available from                            https://www.cp2k.org/
 CP2K| Program compiled at                       Thu 06 Mar 2025 05:09:20 PM CET
 CP2K| Program compiled on                                               login02
 CP2K| Program compiled for                                        Supermuc-foss
 CP2K| Data directory path                  /hppfs/work/pn36zo/di38fab/cp2k/data
 CP2K| Input file name                                                    GW.inp

 GLOBAL| Force Environment number                                              1
 GLOBAL| Basis set file name            /hppfs/scratch/04/di38fab/04_TMD/BASIS_A
 GLOBAL| Potential file name            /hppfs/work/pn36zo/di38fab/cp2k/data/ALL
 GLOBAL| MM Potential file name                                     MM_POTENTIAL
 GLOBAL| Coordinate file name                                      __STD_INPUT__
 GLOBAL| Method name                                                        CP2K
 GLOBAL| Project name                                                       MoS2
 GLOBAL| Run type                                                         ENERGY
 GLOBAL| FFT library                                                       FFTW3
 GLOBAL| Diagonalization library                                       ScaLAPACK
 GLOBAL| DGEMM library                                                      BLAS
 GLOBAL| Orthonormality check for eigenvectors                          DISABLED
 GLOBAL| Matrix multiplication library                                 ScaLAPACK
 GLOBAL| All-to-all communication in single precision                          F
 GLOBAL| FFTs using library dependent lengths                                  F
 GLOBAL| Grid backend                                                       AUTO
 GLOBAL| Global print level                                               MEDIUM
 GLOBAL| MPI I/O enabled                                                       T
 GLOBAL| Total number of message passing processes                           216
 GLOBAL| Number of threads for this process                                    4
 GLOBAL| This output is from process                                           0
 GLOBAL| OpenMP stack size per thread (OMP_STACKSIZE)                    default
 GLOBAL| CPU model name             Intel(R) Xeon(R) Platinum 8174 CPU @ 3.10GHz

 MEMORY| system memory details [Kb]
 MEMORY|                        rank 0           min           max       average
 MEMORY| MemTotal             98436664      98436648      98436708      98436663
 MEMORY| MemFree              84032076      83683672      84226872      83928602
 MEMORY| Buffers                     0             0             0             0
 MEMORY| Cached                2473820       2454444       2602196       2504096
 MEMORY| Slab                  1270996       1217464       1270996       1240442
 MEMORY| SReclaimable           287664        271312        292796        282110
 MEMORY| MemLikelyFree        86793560      86421256      86976208      86714808


 *** Fundamental physical constants (SI units) ***

 *** Literature: B. J. Mohr and B. N. Taylor,
 ***             CODATA recommended values of the fundamental physical
 ***             constants: 2006, Web Version 5.1
 ***             http://physics.nist.gov/constants

 Speed of light in vacuum [m/s]                             2.99792458000000E+08
 Magnetic constant or permeability of vacuum [N/A**2]       1.25663706143592E-06
 Electric constant or permittivity of vacuum [F/m]          8.85418781762039E-12
 Planck constant (h) [J*s]                                  6.62606896000000E-34
 Planck constant (h-bar) [J*s]                              1.05457162825177E-34
 Elementary charge [C]                                      1.60217648700000E-19
 Electron mass [kg]                                         9.10938215000000E-31
 Electron g factor [ ]                                     -2.00231930436220E+00
 Proton mass [kg]                                           1.67262163700000E-27
 Fine-structure constant                                    7.29735253760000E-03
 Rydberg constant [1/m]                                     1.09737315685270E+07
 Avogadro constant [1/mol]                                  6.02214179000000E+23
 Boltzmann constant [J/K]                                   1.38065040000000E-23
 Atomic mass unit [kg]                                      1.66053878200000E-27
 Bohr radius [m]                                            5.29177208590000E-11

 *** Conversion factors ***

 [u] -> [a.u.]                                              1.82288848426455E+03
 [Angstrom] -> [Bohr] = [a.u.]                              1.88972613288564E+00
 [a.u.] = [Bohr] -> [Angstrom]                              5.29177208590000E-01
 [a.u.] -> [s]                                              2.41888432650478E-17
 [a.u.] -> [fs]                                             2.41888432650478E-02
 [a.u.] -> [J]                                              4.35974393937059E-18
 [a.u.] -> [N]                                              8.23872205491840E-08
 [a.u.] -> [K]                                              3.15774647902944E+05
 [a.u.] -> [kJ/mol]                                         2.62549961709828E+03
 [a.u.] -> [kcal/mol]                                       6.27509468713739E+02
 [a.u.] -> [Pa]                                             2.94210107994716E+13
 [a.u.] -> [bar]                                            2.94210107994716E+08
 [a.u.] -> [atm]                                            2.90362800883016E+08
 [a.u.] -> [eV]                                             2.72113838565563E+01
 [a.u.] -> [Hz]                                             6.57968392072181E+15
 [a.u.] -> [1/cm] (wave numbers)                            2.19474631370540E+05
 [a.u./Bohr**2] -> [1/cm]                                   5.14048714338585E+03
 

 CELL_TOP| Volume [angstrom^3]:                                     27000.000000
 CELL_TOP| Vector a [angstrom    30.000     0.000     0.000   |a| =    30.000000
 CELL_TOP| Vector b [angstrom     0.000    30.000     0.000   |b| =    30.000000
 CELL_TOP| Vector c [angstrom     0.000     0.000    30.000   |c| =    30.000000
 CELL_TOP| Angle (b,c), alpha [degree]:                                90.000000
 CELL_TOP| Angle (a,c), beta  [degree]:                                90.000000
 CELL_TOP| Angle (a,b), gamma [degree]:                                90.000000
 CELL_TOP| Numerically orthorhombic:                                         YES
 CELL_TOP| Periodicity                                                      NONE

 GENERATE|  Preliminary Number of Bonds generated:                             0
 GENERATE|  Achieved consistency in connectivity generation.

 CELL| Volume [angstrom^3]:                                         27000.000000
 CELL| Vector a [angstrom]:      30.000     0.000     0.000   |a| =    30.000000
 CELL| Vector b [angstrom]:       0.000    30.000     0.000   |b| =    30.000000
 CELL| Vector c [angstrom]:       0.000     0.000    30.000   |c| =    30.000000
 CELL| Angle (b,c), alpha [degree]:                                    90.000000
 CELL| Angle (a,c), beta  [degree]:                                    90.000000
 CELL| Angle (a,b), gamma [degree]:                                    90.000000
 CELL| Numerically orthorhombic:                                             YES
 CELL| Periodicity                                                          NONE

 CELL_REF| Volume [angstrom^3]:                                     27000.000000
 CELL_REF| Vector a [angstrom    30.000     0.000     0.000   |a| =    30.000000
 CELL_REF| Vector b [angstrom     0.000    30.000     0.000   |b| =    30.000000
 CELL_REF| Vector c [angstrom     0.000     0.000    30.000   |c| =    30.000000
 CELL_REF| Angle (b,c), alpha [degree]:                                90.000000
 CELL_REF| Angle (a,c), beta  [degree]:                                90.000000
 CELL_REF| Angle (a,b), gamma [degree]:                                90.000000
 CELL_REF| Numerically orthorhombic:                                         YES
 CELL_REF| Periodicity                                                      NONE

 *******************************************************************************
 *******************************************************************************
 **                                                                           **
 **     #####                         ##              ##                      **
 **    ##   ##            ##          ##              ##                      **
 **   ##     ##                       ##            ######                    **
 **   ##     ##  ##   ##  ##   #####  ##  ##   ####   ##    #####    #####    **
 **   ##     ##  ##   ##  ##  ##      ## ##   ##      ##   ##   ##  ##   ##   **
 **   ##  ## ##  ##   ##  ##  ##      ####     ###    ##   ######   ######    **
 **    ##  ###   ##   ##  ##  ##      ## ##      ##   ##   ##       ##        **
 **     #######   #####   ##   #####  ##  ##  ####    ##    #####   ##        **
 **           ##                                                    ##        **
 **                                                                           **
 **                                                ... make the atoms dance   **
 **                                                                           **
 **            Copyright (C) by CP2K developers group (2000-2025)             **
 **                      J. Chem. Phys. 152, 194103 (2020)                    **
 **                                                                           **
 *******************************************************************************

 DFT| Spin restricted Kohn-Sham (RKS) calculation                            RKS
 DFT| Multiplicity                                                             1
 DFT| Number of spin states                                                    1
 DFT| Charge                                                                   0
 DFT| Self-interaction correction (SIC)                                       NO
 DFT| Cutoffs: density                                              1.000000E-10
 DFT|          gradient                                             1.000000E-10
 DFT|          tau                                                  1.000000E-10
 DFT|          cutoff_smoothing_range                               0.000000E+00
 DFT| XC density smoothing                                                  NONE
 DFT| XC derivatives                                                          PW

 FUNCTIONAL| PBE:
 FUNCTIONAL| J.P.Perdew, K.Burke, M.Ernzerhof, Phys. Rev. Letter, vol. 77, n 18,
 FUNCTIONAL|  pp. 3865-3868, (1996)sx=0.750sc=1.000{spin unpolarized}           


 QS| Method:                                                                GAPW
 QS| Density plane wave grid type                        NON-SPHERICAL FULLSPACE
 QS| Number of grid levels:                                                    4
 QS| Density cutoff [a.u.]:                                                250.0
 QS| Multi grid cutoff [a.u.]: 1) grid level                               250.0
 QS|                           2) grid level                                83.3
 QS|                           3) grid level                                27.8
 QS|                           4) grid level                                 9.3
 QS| Grid level progression factor:                                          3.0
 QS| Relative density cutoff [a.u.]:                                        50.0
 QS| Interaction thresholds: eps_pgf_orb:                                1.0E-12
 QS|                         eps_filter_matrix:                          0.0E+00
 QS|                         eps_core_charge:                            1.0E-14
 QS|                         eps_rho_gspace:                             1.0E-12
 QS|                         eps_rho_rspace:                             1.0E-12
 QS|                         eps_gvg_rspace:                             1.0E-06
 QS|                         eps_ppl:                                    1.0E-02
 QS|                         eps_ppnl:                                   1.0E-08
 QS| GAPW|      One center basis from orbital basis primitives
 QS| GAPW|                   eps_fit:                                    1.0E-04
 QS| GAPW|                   eps_iso:                                    1.0E-12
 QS| GAPW|                   eps_svd:                                    1.0E-08
 QS| GAPW|                   eps_cpc:                                    1.0E-12
 QS| GAPW|   atom-r-grid: quadrature:                                     GC_LOG
 QS| GAPW|      atom-s-grid:  max l :                                          4
 QS| GAPW|      max_l_rho0 :                                                   2


 ATOMIC KIND INFORMATION

  1. Atomic kind: C                                     Number of atoms:       6

     Orbital Basis Set                                         SVP-MOLOPT-GGA-ae

       Number of orbital shell sets:                                           2
       Number of orbital shells:                                               6
       Number of primitive Cartesian functions:                               11
       Number of Cartesian basis functions:                                   15
       Number of spherical basis functions:                                   14
       Norm type:                                                              2

       Normalised Cartesian orbitals:

                        Set   Shell   Orbital            Exponent    Coefficient

                          1       1    2px               4.145546       1.425967
                                                         0.937529       0.673511
                                                         0.300899       0.144116
                                                         0.096935       0.005344
                          1       1    2py               4.145546       1.425967
                                                         0.937529       0.673511
                                                         0.300899       0.144116
                                                         0.096935       0.005344
                          1       1    2pz               4.145546       1.425967
                                                         0.937529       0.673511
                                                         0.300899       0.144116
                                                         0.096935       0.005344

                          1       2    3px               4.145546      -0.833488
                                                         0.937529      -0.414500
                                                         0.300899       0.082631
                                                         0.096935       0.066903
                          1       2    3py               4.145546      -0.833488
                                                         0.937529      -0.414500
                                                         0.300899       0.082631
                                                         0.096935       0.066903
                          1       2    3pz               4.145546      -0.833488
                                                         0.937529      -0.414500
                                                         0.300899       0.082631
                                                         0.096935       0.066903

                          1       3    3dx2              4.145546       0.718979
                                                         0.937529       0.830801
                                                         0.300899       0.105504
                                                         0.096935       0.001258
                          1       3    3dxy              4.145546       1.245309
                                                         0.937529       1.438990
                                                         0.300899       0.182739
                                                         0.096935       0.002179
                          1       3    3dxz              4.145546       1.245309
                                                         0.937529       1.438990
                                                         0.300899       0.182739
                                                         0.096935       0.002179
                          1       3    3dy2              4.145546       0.718979
                                                         0.937529       0.830801
                                                         0.300899       0.105504
                                                         0.096935       0.001258
                          1       3    3dyz              4.145546       1.245309
                                                         0.937529       1.438990
                                                         0.300899       0.182739
                                                         0.096935       0.002179
                          1       3    3dz2              4.145546       0.718979
                                                         0.937529       0.830801
                                                         0.300899       0.105504
                                                         0.096935       0.001258

                          2       1    1s             1238.394264      -0.490536
                                                       186.270922       1.801845
                                                        40.805234       2.242010
                                                        10.501907       2.110671
                                                         3.176528       0.666384
                                                         0.523772      -0.029268
                                                         0.161278       0.024253

                          2       2    2s             1238.394264       0.147138
                                                       186.270922      -0.108171
                                                        40.805234       0.350132
                                                        10.501907      -0.033488
                                                         3.176528      -0.079506
                                                         0.523772       0.279468
                                                         0.161278       0.080328

                          2       3    3s             1238.394264     -12.484315
                                                       186.270922       1.755878
                                                        40.805234      -2.174132
                                                        10.501907      -0.974990
                                                         3.176528      -0.308205
                                                         0.523772      -0.382710
                                                         0.161278       0.225687

     RI Auxiliary Basis Set                                    aug-cc-pV5Z-OPTRI

       Number of orbital shell sets:                                          22
       Number of orbital shells:                                              22
       Number of primitive Cartesian functions:                               22
       Number of Cartesian basis functions:                                  188
       Number of spherical basis functions:                                  122
       Norm type:                                                              2

       Normalised Cartesian orbitals:

                        Set   Shell   Orbital            Exponent    Coefficient

                          1       1    1gx4              0.114786       0.002892
                          1       1    1gx3y             0.114786       0.007650
                          1       1    1gx3z             0.114786       0.007650
                          1       1    1gx2y2            0.114786       0.009877
                          1       1    1gx2yz            0.114786       0.017107
                          1       1    1gx2z2            0.114786       0.009877
                          1       1    1gxy3             0.114786       0.007650
                          1       1    1gxy2z            0.114786       0.017107
                          1       1    1gxyz2            0.114786       0.017107
                          1       1    1gxz3             0.114786       0.007650
                          1       1    1gy4              0.114786       0.002892
                          1       1    1gy3z             0.114786       0.007650
                          1       1    1gy2z2            0.114786       0.009877
                          1       1    1gyz3             0.114786       0.007650
                          1       1    1gz4              0.114786       0.002892

                          2       1    1px               0.121920       0.102691
                          2       1    1py               0.121920       0.102691
                          2       1    1pz               0.121920       0.102691

                          3       1    1s                0.152658       0.174060

                          4       1    1px               0.299745       0.316140
                          4       1    1py               0.299745       0.316140
                          4       1    1pz               0.299745       0.316140

                          5       1    1s                0.384933       0.348296

                          6       1    1hx5              0.391317       0.035161
                          6       1    1hx4y             0.391317       0.105483
                          6       1    1hx4z             0.391317       0.105483
                          6       1    1hx3y2            0.391317       0.161128
                          6       1    1hx3yz            0.391317       0.279083
                          6       1    1hx3z2            0.391317       0.161128
                          6       1    1hx2y3            0.391317       0.161128
                          6       1    1hx2y2z           0.391317       0.360294
                          6       1    1hx2yz2           0.391317       0.360294
                          6       1    1hx2z3            0.391317       0.161128
                          6       1    1hxy4             0.391317       0.105483
                          6       1    1hxy3z            0.391317       0.279083
                          6       1    1hxy2z2           0.391317       0.360294
                          6       1    1hxyz3            0.391317       0.279083
                          6       1    1hxz4             0.391317       0.105483
                          6       1    1hy5              0.391317       0.035161
                          6       1    1hy4z             0.391317       0.105483
                          6       1    1hy3z2            0.391317       0.161128
                          6       1    1hy2z3            0.391317       0.161128
                          6       1    1hyz4             0.391317       0.105483
                          6       1    1hz5              0.391317       0.035161

                          7       1    1fx3              0.540840       0.369283
                          7       1    1fx2y             0.540840       0.825742
                          7       1    1fx2z             0.540840       0.825742
                          7       1    1fxy2             0.540840       0.825742
                          7       1    1fxyz             0.540840       1.430227
                          7       1    1fxz2             0.540840       0.825742
                          7       1    1fy3              0.540840       0.369283
                          7       1    1fy2z             0.540840       0.825742
                          7       1    1fyz2             0.540840       0.825742
                          7       1    1fz3              0.540840       0.369283

                          8       1    1px               0.678328       0.877485
                          8       1    1py               0.678328       0.877485
                          8       1    1pz               0.678328       0.877485

                          9       1    1dx2              0.754246       1.004748
                          9       1    1dxy              0.754246       1.740275
                          9       1    1dxz              0.754246       1.740275
                          9       1    1dy2              0.754246       1.004748
                          9       1    1dyz              0.754246       1.740275
                          9       1    1dz2              0.754246       1.004748

                         10       1    1gx4              1.012792       1.152434
                         10       1    1gx3y             1.012792       3.049054
                         10       1    1gx3z             1.012792       3.049054
                         10       1    1gx2y2            1.012792       3.936312
                         10       1    1gx2yz            1.012792       6.817893
                         10       1    1gx2z2            1.012792       3.936312
                         10       1    1gxy3             1.012792       3.049054
                         10       1    1gxy2z            1.012792       6.817893
                         10       1    1gxyz2            1.012792       6.817893
                         10       1    1gxz3             1.012792       3.049054
                         10       1    1gy4              1.012792       1.152434
                         10       1    1gy3z             1.012792       3.049054
                         10       1    1gy2z2            1.012792       3.936312
                         10       1    1gyz3             1.012792       3.049054
                         10       1    1gz4              1.012792       1.152434

                         11       1    1s                1.103587       0.767388

                         12       1    1ix6              1.245967       1.020534
                         12       1    1ix5y             1.245967       3.384727
                         12       1    1ix5z             1.245967       3.384727
                         12       1    1ix4y2            1.245967       5.862520
                         12       1    1ix4yz            1.245967      10.154182
                         12       1    1ix4z2            1.245967       5.862520
                         12       1    1ix3y3            1.245967       6.936627
                         12       1    1ix3y2z           1.245967      15.510769
                         12       1    1ix3yz2           1.245967      15.510769
                         12       1    1ix3z3            1.245967       6.936627
                         12       1    1ix2y4            1.245967       5.862520
                         12       1    1ix2y3z           1.245967      15.510769
                         12       1    1ix2y2z2          1.245967      20.024317
                         12       1    1ix2yz3           1.245967      15.510769
                         12       1    1ix2z4            1.245967       5.862520
                         12       1    1ixy5             1.245967       3.384727
                         12       1    1ixy4z            1.245967      10.154182
                         12       1    1ixy3z2           1.245967      15.510769
                         12       1    1ixy2z3           1.245967      15.510769
                         12       1    1ixyz4            1.245967      10.154182
                         12       1    1ixz5             1.245967       3.384727
                         12       1    1iy6              1.245967       1.020534
                         12       1    1iy5z             1.245967       3.384727
                         12       1    1iy4z2            1.245967       5.862520
                         12       1    1iy3z3            1.245967       6.936627
                         12       1    1iy2z4            1.245967       5.862520
                         12       1    1iyz5             1.245967       3.384727
                         12       1    1iz6              1.245967       1.020534

                         13       1    1fx3              1.255807       2.457712
                         13       1    1fx2y             1.255807       5.495611
                         13       1    1fx2z             1.255807       5.495611
                         13       1    1fxy2             1.255807       5.495611
                         13       1    1fxyz             1.255807       9.518677
                         13       1    1fxz2             1.255807       5.495611
                         13       1    1fy3              1.255807       2.457712
                         13       1    1fy2z             1.255807       5.495611
                         13       1    1fyz2             1.255807       5.495611
                         13       1    1fz3              1.255807       2.457712

                         14       1    1px               1.626163       2.617551
                         14       1    1py               1.626163       2.617551
                         14       1    1pz               1.626163       2.617551

                         15       1    1dx2              1.990505       5.490289
                         15       1    1dxy              1.990505       9.509459
                         15       1    1dxz              1.990505       9.509459
                         15       1    1dy2              1.990505       5.490289
                         15       1    1dyz              1.990505       9.509459
                         15       1    1dz2              1.990505       5.490289

                         16       1    1hx5              2.339630      11.750937
                         16       1    1hx4y             2.339630      35.252812
                         16       1    1hx4z             2.339630      35.252812
                         16       1    1hx3y2            2.339630      53.849559
                         16       1    1hx3yz            2.339630      93.270173
                         16       1    1hx3z2            2.339630      53.849559
                         16       1    1hx2y3            2.339630      53.849559
                         16       1    1hx2y2z           2.339630     120.411275
                         16       1    1hx2yz2           2.339630     120.411275
                         16       1    1hx2z3            2.339630      53.849559
                         16       1    1hxy4             2.339630      35.252812
                         16       1    1hxy3z            2.339630      93.270173
                         16       1    1hxy2z2           2.339630     120.411275
                         16       1    1hxyz3            2.339630      93.270173
                         16       1    1hxz4             2.339630      35.252812
                         16       1    1hy5              2.339630      11.750937
                         16       1    1hy4z             2.339630      35.252812
                         16       1    1hy3z2            2.339630      53.849559
                         16       1    1hy2z3            2.339630      53.849559
                         16       1    1hyz4             2.339630      35.252812
                         16       1    1hz5              2.339630      11.750937

                         17       1    1gx4              3.524920      35.570986
                         17       1    1gx3y             3.524920      94.111983
                         17       1    1gx3z             3.524920      94.111983
                         17       1    1gx2y2            3.524920     121.498047
                         17       1    1gx2yz            3.524920     210.440791
                         17       1    1gx2z2            3.524920     121.498047
                         17       1    1gxy3             3.524920      94.111983
                         17       1    1gxy2z            3.524920     210.440791
                         17       1    1gxyz2            3.524920     210.440791
                         17       1    1gxz3             3.524920      94.111983
                         17       1    1gy4              3.524920      35.570986
                         17       1    1gy3z             3.524920      94.111983
                         17       1    1gy2z2            3.524920     121.498047
                         17       1    1gyz3             3.524920      94.111983
                         17       1    1gz4              3.524920      35.570986

                         18       1    1px               4.160664       8.470195
                         18       1    1py               4.160664       8.470195
                         18       1    1pz               4.160664       8.470195

                         19       1    1s                4.500495       2.202193

                         20       1    1fx3              4.904034      52.686550
                         20       1    1fx2y             4.904034     117.810708
                         20       1    1fx2z             4.904034     117.810708
                         20       1    1fxy2             4.904034     117.810708
                         20       1    1fxyz             4.904034     204.054131
                         20       1    1fxz2             4.904034     117.810708
                         20       1    1fy3              4.904034      52.686550
                         20       1    1fy2z             4.904034     117.810708
                         20       1    1fyz2             4.904034     117.810708
                         20       1    1fz3              4.904034      52.686550

                         21       1    1dx2              5.244543      29.915609
                         21       1    1dxy              5.244543      51.815354
                         21       1    1dxz              5.244543      51.815354
                         21       1    1dy2              5.244543      29.915609
                         21       1    1dyz              5.244543      51.815354
                         21       1    1dz2              5.244543      29.915609

                         22       1    1dx2             10.138089      94.805303
                         22       1    1dxy             10.138089     164.207602
                         22       1    1dxz             10.138089     164.207602
                         22       1    1dy2             10.138089      94.805303
                         22       1    1dyz             10.138089     164.207602
                         22       1    1dz2             10.138089      94.805303

       Atomic covalent radius [Angstrom]:                                  0.770

       Atomic van der Waals radius [Angstrom]:                             1.700

     The atoms of this atomic kind are PAW atoms (GAPW):
       Hard Gaussian function radius:                                      1.512
       Rho0 radius:                                                        1.512
       Maximum GTO radius used for PAW projector construction:            24.566

     GAPW Soft Basis Set                                  SVP-MOLOPT-GGA-ae_soft

       Number of orbital shell sets:                                           2
       Number of orbital shells:                                               6
       Number of primitive Cartesian functions:                                7
       Number of Cartesian basis functions:                                   15
       Number of spherical basis functions:                                   14
       Norm type:                                                              2

       Normalised Cartesian orbitals:

                        Set   Shell   Orbital            Exponent    Coefficient

                          1       1    2px               4.145546       1.425967
                                                         0.937529       0.673511
                                                         0.300899       0.144116
                                                         0.096935       0.005344
                          1       1    2py               4.145546       1.425967
                                                         0.937529       0.673511
                                                         0.300899       0.144116
                                                         0.096935       0.005344
                          1       1    2pz               4.145546       1.425967
                                                         0.937529       0.673511
                                                         0.300899       0.144116
                                                         0.096935       0.005344

                          1       2    3px               4.145546      -0.833488
                                                         0.937529      -0.414500
                                                         0.300899       0.082631
                                                         0.096935       0.066903
                          1       2    3py               4.145546      -0.833488
                                                         0.937529      -0.414500
                                                         0.300899       0.082631
                                                         0.096935       0.066903
                          1       2    3pz               4.145546      -0.833488
                                                         0.937529      -0.414500
                                                         0.300899       0.082631
                                                         0.096935       0.066903

                          1       3    3dx2              4.145546       0.718979
                                                         0.937529       0.830801
                                                         0.300899       0.105504
                                                         0.096935       0.001258
                          1       3    3dxy              4.145546       1.245309
                                                         0.937529       1.438990
                                                         0.300899       0.182739
                                                         0.096935       0.002179
                          1       3    3dxz              4.145546       1.245309
                                                         0.937529       1.438990
                                                         0.300899       0.182739
                                                         0.096935       0.002179
                          1       3    3dy2              4.145546       0.718979
                                                         0.937529       0.830801
                                                         0.300899       0.105504
                                                         0.096935       0.001258
                          1       3    3dyz              4.145546       1.245309
                                                         0.937529       1.438990
                                                         0.300899       0.182739
                                                         0.096935       0.002179
                          1       3    3dz2              4.145546       0.718979
                                                         0.937529       0.830801
                                                         0.300899       0.105504
                                                         0.096935       0.001258

                          2       1    1s                3.176528       0.666384
                                                         0.523772      -0.029268
                                                         0.161278       0.024253

                          2       2    2s                3.176528      -0.079506
                                                         0.523772       0.279468
                                                         0.161278       0.080328

                          2       3    3s                3.176528      -0.308205
                                                         0.523772      -0.382710
                                                         0.161278       0.225687

     AE Potential information for                                            ALL

       Description:                                       All-electron potential
                                          Krack, Parrinello, PCCP 2, 2105 (2000)

       Gaussian exponent of the core charge distribution:               4.109048
       Electronic configuration (s p d ...):                           4   2   0

  2. Atomic kind: S                                     Number of atoms:       2

     Orbital Basis Set                                         SVP-MOLOPT-GGA-ae

       Number of orbital shell sets:                                           3
       Number of orbital shells:                                               8
       Number of primitive Cartesian functions:                               17
       Number of Cartesian basis functions:                                   19
       Number of spherical basis functions:                                   18
       Norm type:                                                              2

       Normalised Cartesian orbitals:

                        Set   Shell   Orbital            Exponent    Coefficient

                          1       1    1px             262.037180     -14.606063
                                                        61.243244     -16.017959
                                                        18.817576     -14.902856
                                                         6.030247      -7.192527
                                                         2.043261      -1.163342
                                                         0.461903       0.020884
                                                         0.132026      -0.006041
                          1       1    1py             262.037180     -14.606063
                                                        61.243244     -16.017959
                                                        18.817576     -14.902856
                                                         6.030247      -7.192527
                                                         2.043261      -1.163342
                                                         0.461903       0.020884
                                                         0.132026      -0.006041
                          1       1    1pz             262.037180     -14.606063
                                                        61.243244     -16.017959
                                                        18.817576     -14.902856
                                                         6.030247      -7.192527
                                                         2.043261      -1.163342
                                                         0.461903       0.020884
                                                         0.132026      -0.006041

                          1       2    2px             262.037180       6.627568
                                                        61.243244      -2.127051
                                                        18.817576       1.692650
                                                         6.030247      -0.800963
                                                         2.043261       0.527227
                                                         0.461903       0.460806
                                                         0.132026       0.013372
                          1       2    2py             262.037180       6.627568
                                                        61.243244      -2.127051
                                                        18.817576       1.692650
                                                         6.030247      -0.800963
                                                         2.043261       0.527227
                                                         0.461903       0.460806
                                                         0.132026       0.013372
                          1       2    2pz             262.037180       6.627568
                                                        61.243244      -2.127051
                                                        18.817576       1.692650
                                                         6.030247      -0.800963
                                                         2.043261       0.527227
                                                         0.461903       0.460806
                                                         0.132026       0.013372

                          1       3    3px             262.037180      -9.723876
                                                        61.243244       0.679283
                                                        18.817576      -2.837173
                                                         6.030247      -0.600117
                                                         2.043261      -0.266435
                                                         0.461903      -0.074630
                                                         0.132026       0.122461
                          1       3    3py             262.037180      -9.723876
                                                        61.243244       0.679283
                                                        18.817576      -2.837173
                                                         6.030247      -0.600117
                                                         2.043261      -0.266435
                                                         0.461903      -0.074630
                                                         0.132026       0.122461
                          1       3    3pz             262.037180      -9.723876
                                                        61.243244       0.679283
                                                        18.817576      -2.837173
                                                         6.030247      -0.600117
                                                         2.043261      -0.266435
                                                         0.461903      -0.074630
                                                         0.132026       0.122461

                          1       4    2dx2            262.037180      63.210337
                                                        61.243244     -11.887587
                                                        18.817576       4.642944
                                                         6.030247      -0.691425
                                                         2.043261       1.422467
                                                         0.461903       0.321348
                                                         0.132026       0.010167
                          1       4    2dxy            262.037180     109.483515
                                                        61.243244     -20.589905
                                                        18.817576       8.041814
                                                         6.030247      -1.197583
                                                         2.043261       2.463785
                                                         0.461903       0.556591
                                                         0.132026       0.017609
                          1       4    2dxz            262.037180     109.483515
                                                        61.243244     -20.589905
                                                        18.817576       8.041814
                                                         6.030247      -1.197583
                                                         2.043261       2.463785
                                                         0.461903       0.556591
                                                         0.132026       0.017609
                          1       4    2dy2            262.037180      63.210337
                                                        61.243244     -11.887587
                                                        18.817576       4.642944
                                                         6.030247      -0.691425
                                                         2.043261       1.422467
                                                         0.461903       0.321348
                                                         0.132026       0.010167
                          1       4    2dyz            262.037180     109.483515
                                                        61.243244     -20.589905
                                                        18.817576       8.041814
                                                         6.030247      -1.197583
                                                         2.043261       2.463785
                                                         0.461903       0.556591
                                                         0.132026       0.017609
                          1       4    2dz2            262.037180      63.210337
                                                        61.243244     -11.887587
                                                        18.817576       4.642944
                                                         6.030247      -0.691425
                                                         2.043261       1.422467
                                                         0.461903       0.321348
                                                         0.132026       0.010167

                          2       1    1s               45.482850      -1.175639
                                                         4.876333       1.431452
                                                         1.864066       0.572778
                                                         0.430250      -0.034078
                                                         0.152872       0.004775

                          2       2    2s               45.482850      -0.314552
                                                         4.876333       0.236776
                                                         1.864066      -0.009167
                                                         0.430250       0.282804
                                                         0.152872       0.044200

                          2       3    3s               45.482850       0.143312
                                                         4.876333      -0.094249
                                                         1.864066      -0.118759
                                                         0.430250      -0.172982
                                                         0.152872       0.236834

                          3       1    1s             9184.968607      -3.488008
                                                      1381.514008      -6.811623
                                                       313.892819      -9.517673
                                                        87.514579     -10.059465
                                                        25.931396      -3.470689

     RI Auxiliary Basis Set                                    aug-cc-pV5Z-OPTRI

       Number of orbital shell sets:                                          24
       Number of orbital shells:                                              24
       Number of primitive Cartesian functions:                               24
       Number of Cartesian basis functions:                                  195
       Number of spherical basis functions:                                  128
       Norm type:                                                              2

       Normalised Cartesian orbitals:

                        Set   Shell   Orbital            Exponent    Coefficient

                          1       1    1s                0.155161       0.176196

                          2       1    1dx2              0.292382       0.191348
                          2       1    1dxy              0.292382       0.331424
                          2       1    1dxz              0.292382       0.331424
                          2       1    1dy2              0.292382       0.191348
                          2       1    1dyz              0.292382       0.331424
                          2       1    1dz2              0.292382       0.191348

                          3       1    1px               0.314817       0.336134
                          3       1    1py               0.314817       0.336134
                          3       1    1pz               0.314817       0.336134

                          4       1    1gx4              0.319099       0.048109
                          4       1    1gx3y             0.319099       0.127286
                          4       1    1gx3z             0.319099       0.127286
                          4       1    1gx2y2            0.319099       0.164325
                          4       1    1gx2yz            0.319099       0.284619
                          4       1    1gx2z2            0.319099       0.164325
                          4       1    1gxy3             0.319099       0.127286
                          4       1    1gxy2z            0.319099       0.284619
                          4       1    1gxyz2            0.319099       0.284619
                          4       1    1gxz3             0.319099       0.127286
                          4       1    1gy4              0.319099       0.048109
                          4       1    1gy3z             0.319099       0.127286
                          4       1    1gy2z2            0.319099       0.164325
                          4       1    1gyz3             0.319099       0.127286
                          4       1    1gz4              0.319099       0.048109

                          5       1    1s                0.360347       0.331475

                          6       1    1dx2              0.623460       0.719987
                          6       1    1dxy              0.623460       1.247054
                          6       1    1dxz              0.623460       1.247054
                          6       1    1dy2              0.623460       0.719987
                          6       1    1dyz              0.623460       1.247054
                          6       1    1dz2              0.623460       0.719987

                          7       1    1hx5              0.641004       0.174840
                          7       1    1hx4y             0.641004       0.524521
                          7       1    1hx4z             0.641004       0.524521
                          7       1    1hx3y2            0.641004       0.801219
                          7       1    1hx3yz            0.641004       1.387752
                          7       1    1hx3z2            0.641004       0.801219
                          7       1    1hx2y3            0.641004       0.801219
                          7       1    1hx2y2z           0.641004       1.791580
                          7       1    1hx2yz2           0.641004       1.791580
                          7       1    1hx2z3            0.641004       0.801219
                          7       1    1hxy4             0.641004       0.524521
                          7       1    1hxy3z            0.641004       1.387752
                          7       1    1hxy2z2           0.641004       1.791580
                          7       1    1hxyz3            0.641004       1.387752
                          7       1    1hxz4             0.641004       0.524521
                          7       1    1hy5              0.641004       0.174840
                          7       1    1hy4z             0.641004       0.524521
                          7       1    1hy3z2            0.641004       0.801219
                          7       1    1hy2z3            0.641004       0.801219
                          7       1    1hyz4             0.641004       0.524521
                          7       1    1hz5              0.641004       0.174840

                          8       1    1gx4              0.693087       0.406071
                          8       1    1gx3y             0.693087       1.074362
                          8       1    1gx3z             0.693087       1.074362
                          8       1    1gx2y2            0.693087       1.386996
                          8       1    1gx2yz            0.693087       2.402347
                          8       1    1gx2z2            0.693087       1.386996
                          8       1    1gxy3             0.693087       1.074362
                          8       1    1gxy2z            0.693087       2.402347
                          8       1    1gxyz2            0.693087       2.402347
                          8       1    1gxz3             0.693087       1.074362
                          8       1    1gy4              0.693087       0.406071
                          8       1    1gy3z             0.693087       1.074362
                          8       1    1gy2z2            0.693087       1.386996
                          8       1    1gyz3             0.693087       1.074362
                          8       1    1gz4              0.693087       0.406071

                          9       1    1px               0.725771       0.954860
                          9       1    1py               0.725771       0.954860
                          9       1    1pz               0.725771       0.954860

                         10       1    1s                0.823259       0.615974

                         11       1    1ix6              0.967601       0.395402
                         11       1    1ix5y             0.967601       1.311400
                         11       1    1ix5z             0.967601       1.311400
                         11       1    1ix4y2            0.967601       2.271412
                         11       1    1ix4yz            0.967601       3.934201
                         11       1    1ix4z2            0.967601       2.271412
                         11       1    1ix3y3            0.967601       2.687571
                         11       1    1ix3y2z           0.967601       6.009592
                         11       1    1ix3yz2           0.967601       6.009592
                         11       1    1ix3z3            0.967601       2.687571
                         11       1    1ix2y4            0.967601       2.271412
                         11       1    1ix2y3z           0.967601       6.009592
                         11       1    1ix2y2z2          0.967601       7.758350
                         11       1    1ix2yz3           0.967601       6.009592
                         11       1    1ix2z4            0.967601       2.271412
                         11       1    1ixy5             0.967601       1.311400
                         11       1    1ixy4z            0.967601       3.934201
                         11       1    1ixy3z2           0.967601       6.009592
                         11       1    1ixy2z3           0.967601       6.009592
                         11       1    1ixyz4            0.967601       3.934201
                         11       1    1ixz5             0.967601       1.311400
                         11       1    1iy6              0.967601       0.395402
                         11       1    1iy5z             0.967601       1.311400
                         11       1    1iy4z2            0.967601       2.271412
                         11       1    1iy3z3            0.967601       2.687571
                         11       1    1iy2z4            0.967601       2.271412
                         11       1    1iyz5             0.967601       1.311400
                         11       1    1iz6              0.967601       0.395402

                         12       1    1hx5              1.396358       2.195754
                         12       1    1hx4y             1.396358       6.587262
                         12       1    1hx4z             1.396358       6.587262
                         12       1    1hx3y2            1.396358      10.062209
                         12       1    1hx3yz            1.396358      17.428258
                         12       1    1hx3z2            1.396358      10.062209
                         12       1    1hx2y3            1.396358      10.062209
                         12       1    1hx2y2z           1.396358      22.499784
                         12       1    1hx2yz2           1.396358      22.499784
                         12       1    1hx2z3            1.396358      10.062209
                         12       1    1hxy4             1.396358       6.587262
                         12       1    1hxy3z            1.396358      17.428258
                         12       1    1hxy2z2           1.396358      22.499784
                         12       1    1hxyz3            1.396358      17.428258
                         12       1    1hxz4             1.396358       6.587262
                         12       1    1hy5              1.396358       2.195754
                         12       1    1hy4z             1.396358       6.587262
                         12       1    1hy3z2            1.396358      10.062209
                         12       1    1hy2z3            1.396358      10.062209
                         12       1    1hyz4             1.396358       6.587262
                         12       1    1hz5              1.396358       2.195754

                         13       1    1gx4              1.605512       4.091407
                         13       1    1gx3y             1.605512      10.824846
                         13       1    1gx3z             1.605512      10.824846
                         13       1    1gx2y2            1.605512      13.974816
                         13       1    1gx2yz            1.605512      24.205091
                         13       1    1gx2z2            1.605512      13.974816
                         13       1    1gxy3             1.605512      10.824846
                         13       1    1gxy2z            1.605512      24.205091
                         13       1    1gxyz2            1.605512      24.205091
                         13       1    1gxz3             1.605512      10.824846
                         13       1    1gy4              1.605512       4.091407
                         13       1    1gy3z             1.605512      10.824846
                         13       1    1gy2z2            1.605512      13.974816
                         13       1    1gyz3             1.605512      10.824846
                         13       1    1gz4              1.605512       4.091407

                         14       1    1fx3              1.626334       4.397202
                         14       1    1fx2y             1.626334       9.832441
                         14       1    1fx2z             1.626334       9.832441
                         14       1    1fxy2             1.626334       9.832441
                         14       1    1fxyz             1.626334      17.030288
                         14       1    1fxz2             1.626334       9.832441
                         14       1    1fy3              1.626334       4.397202
                         14       1    1fy2z             1.626334       9.832441
                         14       1    1fyz2             1.626334       9.832441
                         14       1    1fz3              1.626334       4.397202

                         15       1    1dx2              2.408587       7.664672
                         15       1    1dxy              2.408587      13.275601
                         15       1    1dxz              2.408587      13.275601
                         15       1    1dy2              2.408587       7.664672
                         15       1    1dyz              2.408587      13.275601
                         15       1    1dz2              2.408587       7.664672

                         16       1    1px               2.856051       5.292338
                         16       1    1py               2.856051       5.292338
                         16       1    1pz               2.856051       5.292338

                         17       1    1fx3              4.092681      35.072943
                         17       1    1fx2y             4.092681      78.425486
                         17       1    1fx2z             4.092681      78.425486
                         17       1    1fxy2             4.092681      78.425486
                         17       1    1fxyz             4.092681     135.836926
                         17       1    1fxz2             4.092681      78.425486
                         17       1    1fy3              4.092681      35.072943
                         17       1    1fy2z             4.092681      78.425486
                         17       1    1fyz2             4.092681      78.425486
                         17       1    1fz3              4.092681      35.072943

                         18       1    1s                6.641617       2.948597

                         19       1    1dx2              9.756765      88.653255
                         19       1    1dxy              9.756765     153.551941
                         19       1    1dxz              9.756765     153.551941
                         19       1    1dy2              9.756765      88.653255
                         19       1    1dyz              9.756765     153.551941
                         19       1    1dz2              9.756765      88.653255

                         20       1    1fx3             10.299258     279.748527
                         20       1    1fx2y            10.299258     625.536724
                         20       1    1fx2z            10.299258     625.536724
                         20       1    1fxy2            10.299258     625.536724
                         20       1    1fxyz            10.299258    1083.461388
                         20       1    1fxz2            10.299258     625.536724
                         20       1    1fy3             10.299258     279.748527
                         20       1    1fy2z            10.299258     625.536724
                         20       1    1fyz2            10.299258     625.536724
                         20       1    1fz3             10.299258     279.748527

                         21       1    1px              14.896198      41.714245
                         21       1    1py              14.896198      41.714245
                         21       1    1pz              14.896198      41.714245

                         22       1    1s               18.129233       6.261735

                         23       1    1px              32.811728     111.937722
                         23       1    1py              32.811728     111.937722
                         23       1    1pz              32.811728     111.937722

                         24       1    1dx2             34.203609     796.224138
                         24       1    1dxy             34.203609    1379.100661
                         24       1    1dxz             34.203609    1379.100661
                         24       1    1dy2             34.203609     796.224138
                         24       1    1dyz             34.203609    1379.100661
                         24       1    1dz2             34.203609     796.224138

       Atomic covalent radius [Angstrom]:                                  1.020

       Atomic van der Waals radius [Angstrom]:                             1.800

     The atoms of this atomic kind are PAW atoms (GAPW):
       Hard Gaussian function radius:                                      1.512
       Rho0 radius:                                                        1.512
       Maximum GTO radius used for PAW projector construction:            24.566

     GAPW Soft Basis Set                                  SVP-MOLOPT-GGA-ae_soft

       Number of orbital shell sets:                                           3
       Number of orbital shells:                                               8
       Number of primitive Cartesian functions:                                6
       Number of Cartesian basis functions:                                   19
       Number of spherical basis functions:                                   18
       Norm type:                                                              2

       Normalised Cartesian orbitals:

                        Set   Shell   Orbital            Exponent    Coefficient

                          1       1    1px               2.043261      -1.163342
                                                         0.461903       0.020884
                                                         0.132026      -0.006041
                          1       1    1py               2.043261      -1.163342
                                                         0.461903       0.020884
                                                         0.132026      -0.006041
                          1       1    1pz               2.043261      -1.163342
                                                         0.461903       0.020884
                                                         0.132026      -0.006041

                          1       2    2px               2.043261       0.527227
                                                         0.461903       0.460806
                                                         0.132026       0.013372
                          1       2    2py               2.043261       0.527227
                                                         0.461903       0.460806
                                                         0.132026       0.013372
                          1       2    2pz               2.043261       0.527227
                                                         0.461903       0.460806
                                                         0.132026       0.013372

                          1       3    3px               2.043261      -0.266435
                                                         0.461903      -0.074630
                                                         0.132026       0.122461
                          1       3    3py               2.043261      -0.266435
                                                         0.461903      -0.074630
                                                         0.132026       0.122461
                          1       3    3pz               2.043261      -0.266435
                                                         0.461903      -0.074630
                                                         0.132026       0.122461

                          1       4    2dx2              2.043261       1.422467
                                                         0.461903       0.321348
                                                         0.132026       0.010167
                          1       4    2dxy              2.043261       2.463785
                                                         0.461903       0.556591
                                                         0.132026       0.017609
                          1       4    2dxz              2.043261       2.463785
                                                         0.461903       0.556591
                                                         0.132026       0.017609
                          1       4    2dy2              2.043261       1.422467
                                                         0.461903       0.321348
                                                         0.132026       0.010167
                          1       4    2dyz              2.043261       2.463785
                                                         0.461903       0.556591
                                                         0.132026       0.017609
                          1       4    2dz2              2.043261       1.422467
                                                         0.461903       0.321348
                                                         0.132026       0.010167

                          2       1    1s                1.864066       0.572778
                                                         0.430250      -0.034078
                                                         0.152872       0.004775

                          2       2    2s                1.864066      -0.009167
                                                         0.430250       0.282804
                                                         0.152872       0.044200

                          2       3    3s                1.864066      -0.118759
                                                         0.430250      -0.172982
                                                         0.152872       0.236834

                          3       1    1s         

     AE Potential information for                                            ALL

       Description:                                       All-electron potential
                                          Krack, Parrinello, PCCP 2, 2105 (2000)

       Gaussian exponent of the core charge distribution:               2.834467
       Electronic configuration (s p d ...):                           6  10   0

  3. Atomic kind: O                                     Number of atoms:       3

     Orbital Basis Set                                         SVP-MOLOPT-GGA-ae

       Number of orbital shell sets:                                           2
       Number of orbital shells:                                               6
       Number of primitive Cartesian functions:                               11
       Number of Cartesian basis functions:                                   15
       Number of spherical basis functions:                                   14
       Norm type:                                                              2

       Normalised Cartesian orbitals:

                        Set   Shell   Orbital            Exponent    Coefficient

                          1       1    2px              16.368686       3.596544
                                                         2.907977       2.082711
                                                         0.750068       0.626550
                                                         0.191936       0.023686
                          1       1    2py              16.368686       3.596544
                                                         2.907977       2.082711
                                                         0.750068       0.626550
                                                         0.191936       0.023686
                          1       1    2pz              16.368686       3.596544
                                                         2.907977       2.082711
                                                         0.750068       0.626550
                                                         0.191936       0.023686

                          1       2    3px              16.368686      -1.323495
                                                         2.907977      -0.566756
                                                         0.750068      -0.157257
                                                         0.191936       0.196557
                          1       2    3py              16.368686      -1.323495
                                                         2.907977      -0.566756
                                                         0.750068      -0.157257
                                                         0.191936       0.196557
                          1       2    3pz              16.368686      -1.323495
                                                         2.907977      -0.566756
                                                         0.750068      -0.157257
                                                         0.191936       0.196557

[...]
 mp2_eri_3c_integrate                 1  7.0    0.003    0.005    0.456    1.332
 integrate_set_3c                  2535  8.0    0.416    1.234    0.453    1.329
 broadcast_input_information        446  6.0    0.293    0.320    1.236    1.322
 xc_functional_eval                 434 10.9    0.001    0.002    0.937    1.272
 pbe_lda_eval                       434 11.9    0.937    1.271    0.937    1.271
 dbt_total                            8  8.0    0.000    0.000    1.206    1.206
 rs_gather_matrices                  63 10.0    0.001    0.003    1.118    1.196
 compute_Erpa_by_freq_int           100  8.0    0.002    0.003    1.174    1.174
 grid_integrate_task_list            63 10.0    0.074    1.153    0.074    1.153
 cp_fm_cholesky_decompose           102  9.0    1.098    1.103    1.098    1.103
 mp_sendrecv_dv                   27090 10.0    1.006    1.058    1.006    1.058
 pw_scatter_p                       687 12.1    0.895    1.032    0.895    1.032
 dbt_contract                         4  9.0    0.001    0.001    0.866    1.024
 mp_sum_dv                        16843 11.4    0.925    1.013    0.925    1.013
 calculate_rho_atom                 315  9.0    0.346    0.889    0.346    0.889
 pw_gather_p                        627 11.8    0.691    0.837    0.691    0.837
 transfer_pw2rs_90                   63 12.0    0.167    0.197    0.734    0.828
 cp2k_distribution_to_z_slices       63  9.0    0.291    0.317    0.666    0.815
 rs_grid_zero                       317 11.1    0.753    0.788    0.753    0.788
 transfer_rs2pw_90                   63  9.0    0.169    0.206    0.667    0.770
 fft_wrap_pw1pw2_90                 126 10.5    0.019    0.037    0.620    0.707
 qs_energies_init_hamiltonians        1  3.0    0.000    0.000    0.696    0.696
 build_core_hamiltonian_matrix        1  4.0    0.000    0.000    0.683    0.684
 mp_bcast_am_src                    446  7.0    0.518    0.649    0.554    0.682
 overlap_condnum                      1  5.0    0.000    0.000    0.680    0.682
 pw_derive                          561 11.3    0.614    0.659    0.614    0.659
 mp_bcast_i_src                    1784  7.0    0.372    0.654    0.372    0.654
 compute_vec_Sigma_x_minus_vxc_       1  4.0    0.000    0.000    0.625    0.625
 mp_isendrecv_dv                  54180 12.0    0.365    0.623    0.365    0.623
 pw_poisson_rebuild                  63  9.0    0.000    0.000    0.588    0.611
 ps_wavelet_create                    1 10.0    0.000    0.000    0.588    0.611
 RS_z_slice_distribution              1 11.0    0.499    0.552    0.588    0.611
 arnoldi_conjugate_gradient           5  6.0    0.013    0.016    0.572    0.572
 dbt_copy                            12 10.1    0.000    0.000    0.116    0.537
 dbt_remap                            8 10.0    0.002    0.002    0.515    0.518
 dbt_reshape                          8 11.6    0.013    0.017    0.097    0.517
 pw_copy                            940 10.6    0.470    0.513    0.470    0.513
 mp_waitall_2                        50 15.7    0.080    0.501    0.080    0.501
 dbt_communicate_buffer               8 12.6    0.001    0.001    0.079    0.500
 dbt_nd_mp_comm                       8 11.0    0.000    0.000    0.426    0.486
 dbcsr_complete_redistribute        237  8.5    0.015    0.017    0.462    0.469
 calculate_dm_sparse                 62  6.0    0.001    0.001    0.443    0.452
 cp_dbcsr_plus_fm_fm_t               62  7.0    0.001    0.001    0.442    0.451
 copy_dbcsr_to_fm                   109  6.8    0.002    0.002    0.415    0.420
 transfer_pw2rs_10                   63 12.0    0.151    0.179    0.400    0.420
 pw_copy_to_array                   627 11.8    0.263    0.418    0.263    0.418
 transfer_rs2pw_10                   63  9.0    0.153    0.165    0.405    0.412
 mp_isend_dm3                      2280 11.5    0.158    0.382    0.158    0.382
 pw_poisson_set                      64  8.9    0.002    0.002    0.374    0.382
 create_B                             1  8.0    0.000    0.000    0.361    0.372
 mp2_main_alloc_hfx                   1  4.0    0.176    0.369    0.176    0.369
 mp_sum_i                            21  9.7    0.194    0.369    0.194    0.369
 restraint_control                    1  2.0    0.000    0.000    0.193    0.368
 dbcsr_sym_matrix_vector_mult      1883  7.0    0.030    0.034    0.308    0.348
 dbt_tas_multiply                     8 11.5    0.000    0.000    0.331    0.331
 dbt_tas_total                        8 12.5    0.002    0.005    0.328    0.328
 Vh_1c_gg_integrals                  63  8.0    0.009    0.138    0.177    0.320
 init_scf_run                         1  3.0    0.000    0.000    0.319    0.319
 mp_irecv_dm3                      2280 11.5    0.159    0.312    0.159    0.312
 pw_integral_ab_c1d_c1d_gs           63  9.0    0.205    0.207    0.282    0.307
 create_A                             1  8.0    0.001    0.002    0.297    0.300
 mp_max_i                           687  2.7    0.135    0.300    0.135    0.300
 scf_env_initial_rho_setup            1  4.0    0.000    0.000    0.280    0.281
 dbcsr_multiply_generic             139  8.1    0.006    0.007    0.268    0.279
 fft_wrap_pw1pw2_30                 126 10.5    0.004    0.004    0.247    0.258
 cp_fm_to_fm_submat_general         112 10.1    0.179    0.258    0.179    0.258
 pw_copy_from_array                 687 12.1    0.204    0.256    0.204    0.256
 copy_fm_to_dbcsr                   128  8.1    0.001    0.001    0.246    0.254
 pw_axpy                            625  9.3    0.225    0.252    0.225    0.252
 mp_alltoall_z11v                   252 13.5    0.242    0.251    0.242    0.251
 dbcsr_desymmetrize_deep            111  7.8    0.004    0.004    0.243    0.248
 mp_sum_l                          1017  6.3    0.181    0.224    0.181    0.224
 update_ks_atom                      63  8.0    0.019    0.029    0.177    0.223
 qs_init_subsys                       1  2.0    0.004    0.005    0.209    0.209
 mp_bcast_dm                       2142  9.0    0.158    0.204    0.158    0.204
 mp_alltoall_i11v                   822  9.4    0.202    0.203    0.202    0.203
 integrate_four_center_load          63 10.0    0.000    0.001    0.159    0.202
 hfx_load_balance                     1 11.0    0.000    0.000    0.159    0.201
 dbt_tas_dbm                          8 13.5    0.000    0.000    0.201    0.201
 qs_env_setup                         1  3.0    0.000    0.000    0.195    0.198
 Q_trace_and_add_unit_matrix        100  8.0    0.008    0.010    0.147    0.197
 qs_env_rebuild_pw_env                2  3.5    0.000    0.000    0.194    0.197
 pw_env_rebuild                       1  5.0    0.001    0.001    0.193    0.197
 dbm_multiply                         8 15.5    0.170    0.194    0.170    0.194
 cp_fm_syrk                           3  7.0    0.182    0.187    0.182    0.187
 mp_isend_dv                      19888 11.8    0.140    0.183    0.140    0.183
 hfx_load_balance_range               1 12.0    0.000    0.000    0.136    0.178
 dbcsr_add_d                       2874  7.0    0.003    0.003    0.027    0.178
 dbcsr_add_anytype                 2874  8.0    0.004    0.022    0.024    0.175
 dbt_tas_mm_1N                        6 14.5    0.000    0.000    0.146    0.170
 offload_free_buffer                 71  8.3    0.143    0.170    0.143    0.170
 hybrid_alltoall_any                389 11.1    0.010    0.011    0.160    0.167
 yz_to_xz                           126 14.0    0.011    0.013    0.152    0.162
 mult_B_with_W                        1  8.0    0.000    0.000    0.158    0.159
 integrate_four_center_getP          63 10.0    0.023    0.024    0.144    0.151
 pw_grid_setup                        4  6.0    0.000    0.000    0.143    0.146
 pw_grid_setup_internal               4  7.0    0.003    0.004    0.143    0.146
 cp_fm_uplo_to_full                 104  8.0    0.090    0.144    0.090    0.144
 dbcsr_col_vec_to_rep_row          1883  8.0    0.013    0.015    0.104    0.143
 cp_fm_redistribute_start            68  8.0    0.089    0.096    0.124    0.140
 pw_zero                            374 10.3    0.121    0.138    0.121    0.138
 integrate_four_center_dist_KS       63 10.0    0.022    0.023    0.133    0.133
 dbcsr_rep_row_to_rep_col_vec      1883  8.0    0.009    0.011    0.058    0.131
 fft_wrap_pw1pw2_10                 126 10.5    0.001    0.001    0.129    0.130
 dbcsr_finalize                    4322 10.6    0.009    0.041    0.033    0.125
 multiply_cannon                    139  9.1    0.014    0.015    0.117    0.124
 calculate_rho0_atom                315  9.0    0.120    0.124    0.120    0.124
 make_m2s                           278  9.1    0.005    0.006    0.111    0.117
 fm_general_add_bse                   5 10.2    0.000    0.000    0.102    0.114
 mp_rank_compare                   1314 12.9    0.107    0.110    0.107    0.110
 xz_to_yz                           126 11.0    0.008    0.009    0.109    0.110
 dbt_tas_estimate_result_nze          4 12.0    0.002    0.004    0.110    0.110
 vxc_of_r_new                       372  9.0    0.000    0.016    0.003    0.106
 abc_contract                      2535  9.0    0.037    0.094    0.037    0.094
 mp_bcast_dv                       1951  9.0    0.053    0.092    0.053    0.092
 multiply_cannon_loop               139 10.1    0.016    0.017    0.082    0.090
 mp_bcast_iv                        609  6.4    0.038    0.089    0.038    0.089
 get_2c_integrals                     1  6.0    0.000    0.000    0.080    0.082
 create_integ_mat                     4  6.0    0.001    0.001    0.073    0.075
 make_images                        278 10.1    0.015    0.016    0.071    0.075
 array2fm                             4  7.0    0.000    0.000    0.067    0.072
 postprocess_bse                      1  9.0    0.000    0.000    0.069    0.070
 rs_scatter_matrices                 63  7.0    0.001    0.001    0.069    0.070
 pw_grid_sort                         4  8.0    0.043    0.045    0.067    0.070
 scale_and_distribute               126 10.0    0.062    0.068    0.062    0.068
 cp_fm_symm                          63  7.0    0.054    0.068    0.054    0.068
 mp_alltoall_i22                    348  9.3    0.051    0.064    0.051    0.064
 dbcsr_merge_all                   3561 11.4    0.012    0.048    0.018    0.060
 dbcsr_copy                        8219  7.6    0.030    0.036    0.049    0.060
 scf_post_calculation_gpw             1  3.0    0.000    0.000    0.059    0.060
 write_available_results              1  4.0    0.000    0.000    0.059    0.059
 write_mo_free_results                1  5.0    0.003    0.004    0.059    0.059
 dbcsr_iterator_start             24652  8.9    0.030    0.047    0.036    0.058
 pw_scale                           249  9.5    0.042    0.054    0.042    0.054
 mp_comm_split_direct                48 14.5    0.032    0.049    0.032    0.049
 mp_cart_sub                        224  8.8    0.044    0.045    0.044    0.045
 mixing_init                          1  5.0    0.041    0.044    0.045    0.045
 compute_max_radius                   1  6.0    0.020    0.045    0.020    0.045
 dbcsr_create_new                 10662  9.0    0.029    0.031    0.036    0.041
 mp_maxloc_dv                      1529  1.0    0.037    0.040    0.037    0.040
 dbt_distribution_new_expert         76 10.1    0.001    0.002    0.038    0.040
 array2fm_info                        4  8.0    0.033    0.039    0.034    0.040
 mp_bcast_iv_src                    446  7.0    0.017    0.037    0.017    0.037
 dbcsr_iterator_stop              24652  8.9    0.022    0.030    0.027    0.036
 mp_irecv_dv                      19875 11.8    0.020    0.034    0.020    0.034
 dbt_split_blocks_generic            20  8.8    0.008    0.010    0.033    0.034
 compute_2c_integrals                 1  7.0    0.001    0.001    0.031    0.032
 get_multipoles_mo                    1 10.0    0.000    0.000    0.030    0.031
 print_transition_amplitudes          1 10.0    0.000    0.000    0.031    0.031
 make_images_sizes                  278 11.1    0.000    0.000    0.027    0.031
 print_transition_amplitudes_co      50 11.0    0.000    0.001    0.031    0.031
 filter_eigvec_contrib               50 12.0    0.016    0.019    0.031    0.031
 mp_alltoall_i44                    278 12.1    0.027    0.031    0.027    0.031
 dbt_tas_distribution_new            96 11.8    0.020    0.020    0.030    0.030
 fm_general_add_bse_1_setup           5 11.2    0.024    0.029    0.024    0.029
 fm_general_add_bse_5_comm_buff       5 11.2    0.000    0.000    0.019    0.029
 communicate_buffer                   5 12.2    0.001    0.001    0.019    0.029
 create_fast_col_vec_access        3766  8.0    0.016    0.019    0.024    0.029
 create_fast_row_vec_access        3766  8.0    0.016    0.019    0.024    0.029
 dbt_tas_replicate                    8 13.5    0.011    0.015    0.027    0.029
 hirshfeld_integration                1  6.0    0.001    0.009    0.028    0.029
 cube_transpose_2                   126 11.0    0.002    0.003    0.025    0.027
 rs_grid_create_descriptor            4  6.0    0.001    0.001    0.027    0.027
 dbm_redistribute                     9 13.7    0.023    0.027    0.023    0.027
 mp_sum_im                        10885 13.0    0.023    0.026    0.023    0.026
 sort_shells                          4  9.0    0.024    0.026    0.024    0.026
 fm_general_add_bse_4_buf_from_       1 10.0    0.017    0.025    0.017    0.025
 calc_fm_mat_S_rpa                  100  9.0    0.013    0.025    0.013    0.025
 make_images_data                   278 11.1    0.003    0.004    0.016    0.025
 convert_to_new_pgrid                24 13.5    0.005    0.008    0.021    0.025
 ao_to_mo_and_store_B_mult_gw_1       9  7.0    0.000    0.000    0.020    0.025
 compute_2c_integrals_loop_lm         1  8.0    0.000    0.000    0.011    0.024
 mp2_eri_2c_integrate                 1  9.0    0.001    0.002    0.011    0.024
 mp_sum_iv                          331  9.7    0.019    0.024    0.019    0.024
 write_mo_set_to_restart             62  5.0    0.001    0.007    0.010    0.024
 dbt_tas_mm_2                         2 14.5    0.000    0.000    0.024    0.024
 dbcsr_crop_matrix                  310 10.0    0.002    0.002    0.023    0.024
 calculate_hirshfeld_normalizat       1  6.0    0.001    0.009    0.022    0.024
 cube_transpose_1                   126 14.0    0.002    0.002    0.022    0.024
 fm_general_add_bse_4_buf_from_       1 10.0    0.018    0.024    0.018    0.024
 integrate_set_2c                  1765 10.0    0.009    0.022    0.010    0.023
 multiply_cannon_multrec           2484 11.1    0.015    0.022    0.016    0.023
 mp2_main_free_hfx                    1  4.0    0.010    0.022    0.010    0.022
 write_mo_set_low                     4  6.0    0.000    0.000    0.009    0.022
 cp_fm_write_unformatted              4  7.0    0.008    0.017    0.009    0.022
 self_consistency_check              62  5.0    0.000    0.000    0.016    0.021
 cp_dbcsr_sm_fm_multiply              3 11.0    0.000    0.000    0.020    0.021
 cp_fm_create                       333  7.8    0.012    0.021    0.012    0.021
 cp_sm_mix                           62  6.0    0.000    0.001    0.016    0.020
 dbcsr_work_create                 4151 10.5    0.004    0.014    0.006    0.020
 array2fm_fill                        4  8.0    0.005    0.007    0.012    0.020
 mp_max_d                            64  6.9    0.015    0.020    0.015    0.020
 ao_to_mo_and_store_B_mult_bse_       9  7.0    0.000    0.000    0.016    0.020
 dbm_reserve_blocks                  68 14.1    0.016    0.020    0.016    0.020
 multiply_cannon_metrocomm3        2484 11.1    0.004    0.004    0.014    0.020
 mp_cart_rank                     64980  9.9    0.017    0.019    0.017    0.019
 dbcsr_work_destroy_all            4151 11.5    0.004    0.014    0.005    0.019
 cholesky_decomp                      1  7.0    0.000    0.000    0.017    0.019
 dbcsr_copy_submatrix               310 11.0    0.003    0.003    0.017    0.019
 dbt_tas_reshape                      9 14.0    0.000    0.000    0.017    0.019
 dbt_create_new                      40  9.5    0.001    0.001    0.018    0.019
 mp_bcast_av                        765  1.0    0.006    0.009    0.014    0.018
 array2fm_buffer_send                 4  8.0    0.017    0.018    0.017    0.018
 pw_grid_distribute                   4  8.0    0.010    0.011    0.015    0.018
 grep_Lcols                           1  7.0    0.000    0.001    0.015    0.018
 ao_to_mo_and_store_B_mult_1          9  7.0    0.000    0.000    0.014    0.017
 dbcsr_scale_anytype               2875  9.0    0.006    0.007    0.015    0.017
 dbt_tas_reserve_blocks_index        60 13.0    0.000    0.000    0.013    0.017
 mp_sendrecv_dm2                    261  7.3    0.011    0.017    0.011    0.017
 invert_mat                           1  7.0    0.000    0.000    0.016    0.017
 grep_Lcols_comm                      1  8.0    0.006    0.008    0.015    0.017
 cp_fm_triangular_invert              1  8.0    0.016    0.016    0.016    0.016
 dbcsr_data_release               54109 10.2    0.011    0.016    0.011    0.016
 xc_pw_smooth                        62 10.0    0.000    0.000    0.014    0.016
 mp_allgather_i34                   139 10.1    0.013    0.016    0.013    0.016
 pw_grid_assign                       4  8.0    0.014    0.015    0.015    0.016
 dbcsr_sym_matrix_vector_mult_l    1883  8.0    0.008    0.009    0.013    0.016
 dbt_tas_create_split                44 13.2    0.000    0.000    0.015    0.016
 mp_wait                            104  9.0    0.007    0.015    0.007    0.015
 dbt_tas_create_split_rows_or_c      44 14.2    0.000    0.000    0.015    0.015
 multiply_cannon_metrocomm4        2278 11.1    0.007    0.007    0.013    0.015
 ao_to_mo_and_store_B_E_Ex_gw_1       9  7.0    0.006    0.007    0.014    0.015
 mp_alltoall_i                       40 13.9    0.012    0.015    0.012    0.015
 fm_general_add_bse_6_buffer_to       1 10.0    0.008    0.015    0.008    0.015
 pw_grid_remap                        4  8.0    0.003    0.003    0.013    0.015
 hfx_create                           1  2.0    0.014    0.014    0.014    0.015
 reshape_mm_small                     8 13.5    0.002    0.002    0.014    0.014
 ao_to_mo_and_store_B_mult_bse_       9  7.0    0.000    0.000    0.012    0.014
 mp_send_dv                           4  8.0    0.001    0.014    0.001    0.014
 multiply_cannon_metrocomm2        2211 11.1    0.006    0.007    0.012    0.013
 dbt_reserve_blocks_index            36 10.8    0.000    0.000    0.009    0.013
 mp_comm_split                       68  9.0    0.012    0.013    0.012    0.013
 dbt_tas_communicate_buffer          17 15.8    0.002    0.002    0.011    0.013
 truncate_BSE_matrices                1  8.0    0.000    0.000    0.010    0.013
 dbcsr_data_new                   26650 10.7    0.007    0.012    0.007    0.012
 hfx_load_balance_redist              1 12.0    0.009    0.010    0.011    0.012
 -------------------------------------------------------------------------------

 The number of warnings for this run is : 1
 
 -------------------------------------------------------------------------------
  **** **** ******  **  PROGRAM ENDED AT                 2025-03-29 04:19:29.541
 ***** ** ***  *** **   PROGRAM RAN ON                              i01r07c06s08
 **    ****   ******    PROGRAM RAN BY                                   di38fab
 ***** **    ** ** **   PROGRAM PROCESS ID                               1750648
  **** **  *******  **  PROGRAM STOPPED IN /hppfs/scratch/04/di38fab/07_MOL_non_
                                           aug/05_MOL_non_aug/05_MOL/aUKBqsEOTmq
                                           69kFe5R_nOg/5k_set_final_qzvp/SBZSAM/
                                           SZV/GW+BSE
