 DBCSR| CPU Multiplication driver                                           BLAS (U)
 DBCSR| Multrec recursion limit                                              512 (U)
 DBCSR| Multiplication stack size                                           1000 (D)
 DBCSR| Maximum elements for images                                    UNLIMITED (U)
 DBCSR| Multiplicative factor virtual images                                   1 (U)
 DBCSR| Use multiplication densification                                       T (D)
 DBCSR| Multiplication size stacks                                             3 (U)
 DBCSR| Use memory pool for CPU allocation                                     F (U)
 DBCSR| Number of 3D layers                                               SINGLE (U)
 DBCSR| Use MPI memory allocation                                              F (U)
 DBCSR| Use RMA algorithm                                                      F (U)
 DBCSR| Use Communication thread                                               T (U)
 DBCSR| Communication thread load                                             45 (D)
 DBCSR| MPI: My process id                                                     0
 DBCSR| MPI: Number of processes                                             128
 DBCSR| OMP: Current number of threads                                        12
 DBCSR| OMP: Max number of threads                                            12
 DBCSR| Split modifier for TAS multiplication algorithm                  1.0E+00 (U)


  **** **** ******  **  PROGRAM STARTED AT               2025-04-14 07:37:31.618
 ***** ** ***  *** **   PROGRAM STARTED ON                          i02r02c01s06
 **    ****   ******    PROGRAM STARTED BY                               di38fab
 ***** **    ** ** **   PROGRAM PROCESS ID                               1908235
  **** **  *******  **  PROGRAM STARTED IN /hppfs/scratch/04/di38fab/05_MOL/aUKB
                                           qsEOTmq69kFe5R_nOg/5k_set_final_qzvp/
                                           KADZOE/aug-cc-pVQZ/TDDFT

 CP2K| version string:                 CP2K version 2025.1 (Development Version)
 CP2K| source code revision number:                             unknown revision
 CP2K| cp2kflags: omp libint fftw3 libxc parallel scalapack max_contr=4         
 CP2K| is freely available from                            https://www.cp2k.org/
 CP2K| Program compiled at                         Thu Apr 10 16:20:23 CEST 2025
 CP2K| Program compiled on                                               login01
 CP2K| Program compiled for                                        Supermuc-foss
 CP2K| Data directory path                  /hppfs/work/pn36zo/di38fab/cp2k/data
 CP2K| Input file name                                                    GW.inp

 GLOBAL| Force Environment number                                              1
 GLOBAL| Basis set file name            /hppfs/scratch/04/di38fab/04_TMD/BASIS_A
 GLOBAL| Potential file name            /hppfs/work/pn36zo/di38fab/cp2k/data/ALL
 GLOBAL| MM Potential file name                                     MM_POTENTIAL
 GLOBAL| Coordinate file name                                      __STD_INPUT__
 GLOBAL| Method name                                                        CP2K
 GLOBAL| Project name                                                       MoS2
 GLOBAL| Run type                                                         ENERGY
 GLOBAL| FFT library                                                       FFTW3
 GLOBAL| Diagonalization library                                       ScaLAPACK
 GLOBAL| DGEMM library                                                      BLAS
 GLOBAL| Orthonormality check for eigenvectors                          DISABLED
 GLOBAL| Matrix multiplication library                                 ScaLAPACK
 GLOBAL| All-to-all communication in single precision                          F
 GLOBAL| FFTs using library dependent lengths                                  F
 GLOBAL| Grid backend                                                       AUTO
 GLOBAL| Global print level                                               MEDIUM
 GLOBAL| MPI I/O enabled                                                       T
 GLOBAL| Total number of message passing processes                           128
 GLOBAL| Number of threads for this process                                   12
 GLOBAL| This output is from process                                           0
 GLOBAL| OpenMP stack size per thread (OMP_STACKSIZE)                    default
 GLOBAL| CPU model name             Intel(R) Xeon(R) Platinum 8174 CPU @ 3.10GHz

 MEMORY| system memory details [Kb]
 MEMORY|                        rank 0           min           max       average
 MEMORY| MemTotal             98436660      98436660      98436736      98436679
 MEMORY| MemFree              84801172      84500760      87103196      84964315
 MEMORY| Buffers                     0             0             0             0
 MEMORY| Cached                2356456       2172256       2578812       2409823
 MEMORY| Slab                  1243456        878752       1276664       1213488
 MEMORY| SReclaimable           272252        188972        285936        271659
 MEMORY| MemLikelyFree        87429880      87215784      89464424      87645798


 *** Fundamental physical constants (SI units) ***

 *** Literature: B. J. Mohr and B. N. Taylor,
 ***             CODATA recommended values of the fundamental physical
 ***             constants: 2006, Web Version 5.1
 ***             http://physics.nist.gov/constants

 Speed of light in vacuum [m/s]                             2.99792458000000E+08
 Magnetic constant or permeability of vacuum [N/A**2]       1.25663706143592E-06
 Electric constant or permittivity of vacuum [F/m]          8.85418781762039E-12
 Planck constant (h) [J*s]                                  6.62606896000000E-34
 Planck constant (h-bar) [J*s]                              1.05457162825177E-34
 Elementary charge [C]                                      1.60217648700000E-19
 Electron mass [kg]                                         9.10938215000000E-31
 Electron g factor [ ]                                     -2.00231930436220E+00
 Proton mass [kg]                                           1.67262163700000E-27
 Fine-structure constant                                    7.29735253760000E-03
 Rydberg constant [1/m]                                     1.09737315685270E+07
 Avogadro constant [1/mol]                                  6.02214179000000E+23
 Boltzmann constant [J/K]                                   1.38065040000000E-23
 Atomic mass unit [kg]                                      1.66053878200000E-27
 Bohr radius [m]                                            5.29177208590000E-11

 *** Conversion factors ***

 [u] -> [a.u.]                                              1.82288848426455E+03
 [Angstrom] -> [Bohr] = [a.u.]                              1.88972613288564E+00
 [a.u.] = [Bohr] -> [Angstrom]                              5.29177208590000E-01
 [a.u.] -> [s]                                              2.41888432650478E-17
 [a.u.] -> [fs]                                             2.41888432650478E-02
 [a.u.] -> [J]                                              4.35974393937059E-18
 [a.u.] -> [N]                                              8.23872205491840E-08
 [a.u.] -> [K]                                              3.15774647902944E+05
 [a.u.] -> [kJ/mol]                                         2.62549961709828E+03
 [a.u.] -> [kcal/mol]                                       6.27509468713739E+02
 [a.u.] -> [Pa]                                             2.94210107994716E+13
 [a.u.] -> [bar]                                            2.94210107994716E+08
 [a.u.] -> [atm]                                            2.90362800883016E+08
 [a.u.] -> [eV]                                             2.72113838565563E+01
 [a.u.] -> [Hz]                                             6.57968392072181E+15
 [a.u.] -> [1/cm] (wave numbers)                            2.19474631370540E+05
 [a.u./Bohr**2] -> [1/cm]                                   5.14048714338585E+03
 

 CELL_TOP| Volume [angstrom^3]:                                     27000.000000
 CELL_TOP| Vector a [angstrom    30.000     0.000     0.000   |a| =    30.000000
 CELL_TOP| Vector b [angstrom     0.000    30.000     0.000   |b| =    30.000000
 CELL_TOP| Vector c [angstrom     0.000     0.000    30.000   |c| =    30.000000
 CELL_TOP| Angle (b,c), alpha [degree]:                                90.000000
 CELL_TOP| Angle (a,c), beta  [degree]:                                90.000000
 CELL_TOP| Angle (a,b), gamma [degree]:                                90.000000
 CELL_TOP| Numerically orthorhombic:                                         YES
 CELL_TOP| Periodicity                                                      NONE

 GENERATE|  Preliminary Number of Bonds generated:                             0
 GENERATE|  Achieved consistency in connectivity generation.

 CELL| Volume [angstrom^3]:                                         27000.000000
 CELL| Vector a [angstrom]:      30.000     0.000     0.000   |a| =    30.000000
 CELL| Vector b [angstrom]:       0.000    30.000     0.000   |b| =    30.000000
 CELL| Vector c [angstrom]:       0.000     0.000    30.000   |c| =    30.000000
 CELL| Angle (b,c), alpha [degree]:                                    90.000000
 CELL| Angle (a,c), beta  [degree]:                                    90.000000
 CELL| Angle (a,b), gamma [degree]:                                    90.000000
 CELL| Numerically orthorhombic:                                             YES
 CELL| Periodicity                                                          NONE

 CELL_REF| Volume [angstrom^3]:                                     27000.000000
 CELL_REF| Vector a [angstrom    30.000     0.000     0.000   |a| =    30.000000
 CELL_REF| Vector b [angstrom     0.000    30.000     0.000   |b| =    30.000000
 CELL_REF| Vector c [angstrom     0.000     0.000    30.000   |c| =    30.000000
 CELL_REF| Angle (b,c), alpha [degree]:                                90.000000
 CELL_REF| Angle (a,c), beta  [degree]:                                90.000000
 CELL_REF| Angle (a,b), gamma [degree]:                                90.000000
 CELL_REF| Numerically orthorhombic:                                         YES
 CELL_REF| Periodicity                                                      NONE

 *******************************************************************************
 *******************************************************************************
 **                                                                           **
 **     #####                         ##              ##                      **
 **    ##   ##            ##          ##              ##                      **
 **   ##     ##                       ##            ######                    **
 **   ##     ##  ##   ##  ##   #####  ##  ##   ####   ##    #####    #####    **
 **   ##     ##  ##   ##  ##  ##      ## ##   ##      ##   ##   ##  ##   ##   **
 **   ##  ## ##  ##   ##  ##  ##      ####     ###    ##   ######   ######    **
 **    ##  ###   ##   ##  ##  ##      ## ##      ##   ##   ##       ##        **
 **     #######   #####   ##   #####  ##  ##  ####    ##    #####   ##        **
 **           ##                                                    ##        **
 **                                                                           **
 **                                                ... make the atoms dance   **
 **                                                                           **
 **            Copyright (C) by CP2K developers group (2000-2025)             **
 **                      J. Chem. Phys. 152, 194103 (2020)                    **
 **                                                                           **
 *******************************************************************************

 DFT| Spin restricted Kohn-Sham (RKS) calculation                            RKS
 DFT| Multiplicity                                                             1
 DFT| Number of spin states                                                    1
 DFT| Charge                                                                   0
 DFT| Self-interaction correction (SIC)                                       NO
 DFT| Cutoffs: density                                              1.000000E-10
 DFT|          gradient                                             1.000000E-10
 DFT|          tau                                                  1.000000E-10
 DFT|          cutoff_smoothing_range                               0.000000E+00
 DFT| XC density smoothing                                                  NONE
 DFT| XC derivatives                                                          PW

 FUNCTIONAL| PBE:
 FUNCTIONAL| J.P.Perdew, K.Burke, M.Ernzerhof, Phys. Rev. Letter, vol. 77, n 18,
 FUNCTIONAL|  pp. 3865-3868, (1996)sx=0.750sc=1.000{spin unpolarized}           


 QS| Method:                                                                GAPW
 QS| Density plane wave grid type                        NON-SPHERICAL FULLSPACE
 QS| Number of grid levels:                                                    4
 QS| Density cutoff [a.u.]:                                                250.0
 QS| Multi grid cutoff [a.u.]: 1) grid level                               250.0
 QS|                           2) grid level                                83.3
 QS|                           3) grid level                                27.8
 QS|                           4) grid level                                 9.3
 QS| Grid level progression factor:                                          3.0
 QS| Relative density cutoff [a.u.]:                                        50.0
 QS| Interaction thresholds: eps_pgf_orb:                                1.0E-12
 QS|                         eps_filter_matrix:                          0.0E+00
 QS|                         eps_core_charge:                            1.0E-14
 QS|                         eps_rho_gspace:                             1.0E-12
 QS|                         eps_rho_rspace:                             1.0E-12
 QS|                         eps_gvg_rspace:                             1.0E-06
 QS|                         eps_ppl:                                    1.0E-02
 QS|                         eps_ppnl:                                   1.0E-08
 QS| GAPW|      One center basis from orbital basis primitives
 QS| GAPW|                   eps_fit:                                    1.0E-04
 QS| GAPW|                   eps_iso:                                    1.0E-12
 QS| GAPW|                   eps_svd:                                    1.0E-08
 QS| GAPW|                   eps_cpc:                                    1.0E-12
 QS| GAPW|   atom-r-grid: quadrature:                                     GC_LOG
 QS| GAPW|      atom-s-grid:  max l :                                          8
 QS| GAPW|      max_l_rho0 :                                                   2


 ATOMIC KIND INFORMATION

  1. Atomic kind: O                                     Number of atoms:       2

     Orbital Basis Set                                               aug-cc-pVQZ

       Number of orbital shell sets:                                          10
       Number of orbital shells:                                              20
       Number of primitive Cartesian functions:                               29
       Number of Cartesian basis functions:                                  105
       Number of spherical basis functions:                                   80
       Norm type:                                                              2

       Normalised Cartesian orbitals:

                        Set   Shell   Orbital            Exponent    Coefficient

                          1       1    1px               0.053480       0.036659
                          1       1    1py               0.053480       0.036659
                          1       1    1pz               0.053480       0.036659

                          2       1    1s                0.069590       0.096565

                          3       1    1dx2              0.154000       0.062312
                          3       1    1dxy              0.154000       0.107927
                          3       1    1dxz              0.154000       0.107927
                          3       1    1dy2              0.154000       0.062312
                          3       1    1dyz              0.154000       0.107927
                          3       1    1dz2              0.154000       0.062312

                          4       1    1px              63.420000       0.000000
                                                        14.660000       0.000000
                                                         4.459000       0.000000
                                                         1.531000       2.427499
                                                         0.530200       0.000000
                                                         0.175000       0.000000
                          4       1    1py              63.420000       0.000000
                                                        14.660000       0.000000
                                                         4.459000       0.000000
                                                         1.531000       2.427499
                                                         0.530200       0.000000
                                                         0.175000       0.000000
                          4       1    1pz              63.420000       0.000000
                                                        14.660000       0.000000
                                                         4.459000       0.000000
                                                         1.531000       2.427499
                                                         0.530200       0.000000
                                                         0.175000       0.000000

                          4       2    2px              63.420000       1.541868
                                                        14.660000       1.709122
                                                         4.459000       1.488326
                                                         1.531000       0.865964
                                                         0.530200       0.289113
                                                         0.175000       0.039518
                          4       2    2py              63.420000       1.541868
                                                        14.660000       1.709122
                                                         4.459000       1.488326
                                                         1.531000       0.865964
                                                         0.530200       0.289113
                                                         0.175000       0.039518
                          4       2    2pz              63.420000       1.541868
                                                        14.660000       1.709122
                                                         4.459000       1.488326
                                                         1.531000       0.865964
                                                         0.530200       0.289113
                                                         0.175000       0.039518

                          4       3    3px              63.420000       0.000000
                                                        14.660000       0.000000
                                                         4.459000       0.000000
                                                         1.531000       0.000000
                                                         0.530200       0.644896
                                                         0.175000       0.000000
                          4       3    3py              63.420000       0.000000
                                                        14.660000       0.000000
                                                         4.459000       0.000000
                                                         1.531000       0.000000
                                                         0.530200       0.644896
                                                         0.175000       0.000000
                          4       3    3pz              63.420000       0.000000
                                                        14.660000       0.000000
                                                         4.459000       0.000000
                                                         1.531000       0.000000
                                                         0.530200       0.644896
                                                         0.175000       0.000000

                          4       4    4px              63.420000       0.000000
                                                        14.660000       0.000000
                                                         4.459000       0.000000
                                                         1.531000       0.000000
                                                         0.530200       0.000000
                                                         0.175000       0.161338
                          4       4    4py              63.420000       0.000000
                                                        14.660000       0.000000
                                                         4.459000       0.000000
                                                         1.531000       0.000000
                                                         0.530200       0.000000
                                                         0.175000       0.161338
                          4       4    4pz              63.420000       0.000000
                                                        14.660000       0.000000
                                                         4.459000       0.000000
                                                         1.531000       0.000000
                                                         0.530200       0.000000
                                                         0.175000       0.161338

                          5       1    1s            61420.000000       0.250256
                                                      9199.000000       0.467274
                                                      2091.000000       0.807479
                                                       590.900000       1.299881
                                                       192.300000       1.929375
                                                        69.320000       2.498458
                                                        26.970000       2.574768
                                                        11.100000       1.727188
                                                         4.682000       0.492214
                                                         1.428000       0.016380
                                                         0.554700      -0.001146
                                                         0.206700       0.000208

                          5       2    2s            61420.000000       0.000000
                                                      9199.000000       0.000000
                                                      2091.000000       0.000000
                                                       590.900000       0.000000
                                                       192.300000       0.000000
                                                        69.320000       0.000000
                                                        26.970000       0.000000
                                                        11.100000       0.000000
                                                         4.682000       0.000000
                                                         1.428000       0.931014
                                                         0.554700       0.000000
                                                         0.206700       0.000000

                          5       3    3s            61420.000000       0.000000
                                                      9199.000000       0.000000
                                                      2091.000000       0.000000
                                                       590.900000       0.000000
                                                       192.300000       0.000000
                                                        69.320000       0.000000
                                                        26.970000       0.000000
                                                        11.100000       0.000000
                                                         4.682000       0.000000
                                                         1.428000       0.000000
                                                         0.554700       0.458093
                                                         0.206700       0.000000

                          5       4    4s            61420.000000      -0.055613
                                                      9199.000000      -0.106442
                                                      2091.000000      -0.182696
                                                       590.900000      -0.299644
                                                       192.300000      -0.447389
                                                        69.320000      -0.620860
                                                        26.970000      -0.700015
                                                        11.100000      -0.659178
                                                         4.682000      -0.261625
                                                         1.428000       0.269044
                                                         0.554700       0.268501
                                                         0.206700       0.060656

                          5       5    5s            61420.000000       0.000000
                                                      9199.000000       0.000000
                                                      2091.000000       0.000000
                                                       590.900000       0.000000
                                                       192.300000       0.000000
                                                        69.320000       0.000000
                                                        26.970000       0.000000
                                                        11.100000       0.000000
                                                         4.682000       0.000000
                                                         1.428000       0.000000
                                                         0.554700       0.000000
                                                         0.206700       0.218482

                          6       1    1fx3              0.324000       0.116595
                          6       1    1fx2y             0.324000       0.260715
                          6       1    1fx2z             0.324000       0.260715
                          6       1    1fxy2             0.324000       0.260715
                          6       1    1fxyz             0.324000       0.451571
                          6       1    1fxz2             0.324000       0.260715
                          6       1    1fy3              0.324000       0.116595
                          6       1    1fy2z             0.324000       0.260715
                          6       1    1fyz2             0.324000       0.260715
                          6       1    1fz3              0.324000       0.116595

                          7       1    1dx2              3.775000      16.827288
                                                         1.300000       0.000000
                                                         0.444000       0.000000
                          7       1    1dxy              3.775000      29.145718
                                                         1.300000       0.000000
                                                         0.444000       0.000000
                          7       1    1dxz              3.775000      29.145718
                                                         1.300000       0.000000
                                                         0.444000       0.000000
                          7       1    1dy2              3.775000      16.827288
                                                         1.300000       0.000000
                                                         0.444000       0.000000
                          7       1    1dyz              3.775000      29.145718
                                                         1.300000       0.000000
                                                         0.444000       0.000000
                          7       1    1dz2              3.775000      16.827288
                                                         1.300000       0.000000
                                                         0.444000       0.000000

                          7       2    2dx2              3.775000       0.000000
                                                         1.300000       2.605016
                                                         0.444000       0.000000
                          7       2    2dxy              3.775000       0.000000
                                                         1.300000       4.512019
                                                         0.444000       0.000000
                          7       2    2dxz              3.775000       0.000000
                                                         1.300000       4.512019
                                                         0.444000       0.000000
                          7       2    2dy2              3.775000       0.000000
                                                         1.300000       2.605016
                                                         0.444000       0.000000
                          7       2    2dyz              3.775000       0.000000
                                                         1.300000       4.512019
                                                         0.444000       0.000000
                          7       2    2dz2              3.775000       0.000000
                                                         1.300000       2.605016
                                                         0.444000       0.000000

                          7       3    3dx2              3.775000       0.000000
                                                         1.300000       0.000000
                                                         0.444000       0.397493
                          7       3    3dxy              3.775000       0.000000
                                                         1.300000       0.000000
                                                         0.444000       0.688478
                          7       3    3dxz              3.775000       0.000000
                                                         1.300000       0.000000
                                                         0.444000       0.688478
                          7       3    3dy2              3.775000       0.000000
                                                         1.300000       0.000000
                                                         0.444000       0.397493
                          7       3    3dyz              3.775000       0.000000
                                                         1.300000       0.000000
                                                         0.444000       0.688478
                          7       3    3dz2              3.775000       0.000000
                                                         1.300000       0.000000
                                                         0.444000       0.397493

                          8       1    1gx4              0.714000       0.440662
                          8       1    1gx3y             0.714000       1.165882
                          8       1    1gx3z             0.714000       1.165882
                          8       1    1gx2y2            0.714000       1.505147
                          8       1    1gx2yz            0.714000       2.606991
                          8       1    1gx2z2            0.714000       1.505147
                          8       1    1gxy3             0.714000       1.165882
                          8       1    1gxy2z            0.714000       2.606991
                          8       1    1gxyz2            0.714000       2.606991
                          8       1    1gxz3             0.714000       1.165882
                          8       1    1gy4              0.714000       0.440662
                          8       1    1gy3z             0.714000       1.165882
                          8       1    1gy2z2            0.714000       1.505147
                          8       1    1gyz3             0.714000       1.165882
                          8       1    1gz4              0.714000       0.440662

                          9       1    1fx3              2.666000      13.370258
                                                         0.859000       0.000000
                          9       1    1fx2y             2.666000      29.896805
                                                         0.859000       0.000000
                          9       1    1fx2z             2.666000      29.896805
                                                         0.859000       0.000000
                          9       1    1fxy2             2.666000      29.896805
                                                         0.859000       0.000000
                          9       1    1fxyz             2.666000      51.782785
                                                         0.859000       0.000000
                          9       1    1fxz2             2.666000      29.896805
                                                         0.859000       0.000000
                          9       1    1fy3              2.666000      13.370258
                                                         0.859000       0.000000
                          9       1    1fy2z             2.666000      29.896805
                                                         0.859000       0.000000
                          9       1    1fyz2             2.666000      29.896805
                                                         0.859000       0.000000
                          9       1    1fz3              2.666000      13.370258
                                                         0.859000       0.000000

                          9       2    2fx3              2.666000       0.000000
                                                         0.859000       1.045777
                          9       2    2fx2y             2.666000       0.000000
                                                         0.859000       2.338428
                          9       2    2fx2z             2.666000       0.000000
                                                         0.859000       2.338428
                          9       2    2fxy2             2.666000       0.000000
                                                         0.859000       2.338428
                          9       2    2fxyz             2.666000       0.000000
                                                         0.859000       4.050277
                          9       2    2fxz2             2.666000       0.000000
                                                         0.859000       2.338428
                          9       2    2fy3              2.666000       0.000000
                                                         0.859000       1.045777
                          9       2    2fy2z             2.666000       0.000000
                                                         0.859000       2.338428
                          9       2    2fyz2             2.666000       0.000000
                                                         0.859000       2.338428
                          9       2    2fz3              2.666000       0.000000
                                                         0.859000       1.045777

                         10       1    1gx4              1.846000       6.005824
                         10       1    1gx3y             1.846000      15.889916
                         10       1    1gx3z             1.846000      15.889916
                         10       1    1gx2y2            1.846000      20.513794
                         10       1    1gx2yz            1.846000      35.530933
                         10       1    1gx2z2            1.846000      20.513794
                         10       1    1gxy3             1.846000      15.889916
                         10       1    1gxy2z            1.846000      35.530933
                         10       1    1gxyz2            1.846000      35.530933
                         10       1    1gxz3             1.846000      15.889916
                         10       1    1gy4              1.846000       6.005824
                         10       1    1gy3z             1.846000      15.889916
                         10       1    1gy2z2            1.846000      20.513794
                         10       1    1gyz3             1.846000      15.889916
                         10       1    1gz4              1.846000       6.005824

     RI Auxiliary Basis Set                                    aug-cc-pVQZ-OPTRI

       Number of orbital shell sets:                                          19
       Number of orbital shells:                                              19
       Number of primitive Cartesian functions:                               19
       Number of Cartesian basis functions:                                  124
       Number of spherical basis functions:                                   89
       Norm type:                                                              2

       Normalised Cartesian orbitals:

                        Set   Shell   Orbital            Exponent    Coefficient

                          1       1    1px               0.097330       0.077491
                          1       1    1py               0.097330       0.077491
                          1       1    1pz               0.097330       0.077491

                          2       1    1s                0.109432       0.135603

                          3       1    1dx2              0.265583       0.161719
                          3       1    1dxy              0.265583       0.280105
                          3       1    1dxz              0.265583       0.280105
                          3       1    1dy2              0.265583       0.161719
                          3       1    1dyz              0.265583       0.280105
                          3       1    1dz2              0.265583       0.161719

                          4       1    1px               0.301747       0.318782
                          4       1    1py               0.301747       0.318782
                          4       1    1pz               0.301747       0.318782

                          5       1    1s                0.318060       0.301850

                          6       1    1fx3              0.549464       0.382664
                          6       1    1fx2y             0.549464       0.855663
                          6       1    1fx2z             0.549464       0.855663
                          6       1    1fxy2             0.549464       0.855663
                          6       1    1fxyz             0.549464       1.482052
                          6       1    1fxz2             0.549464       0.855663
                          6       1    1fy3              0.549464       0.382664
                          6       1    1fy2z             0.549464       0.855663
                          6       1    1fyz2             0.549464       0.855663
                          6       1    1fz3              0.549464       0.382664

                          7       1    1px               0.793946       1.068264
                          7       1    1py               0.793946       1.068264
                          7       1    1pz               0.793946       1.068264

                          8       1    1dx2              0.794013       1.099279
                          8       1    1dxy              0.794013       1.904006
                          8       1    1dxz              0.794013       1.904006
                          8       1    1dy2              0.794013       1.099279
                          8       1    1dyz              0.794013       1.904006
                          8       1    1dz2              0.794013       1.099279

                          9       1    1s                0.848497       0.630083

                         10       1    1gx4              1.089939       1.410235
                         10       1    1gx3y             1.089939       3.731131
                         10       1    1gx3z             1.089939       3.731131
                         10       1    1gx2y2            1.089939       4.816869
                         10       1    1gx2yz            1.089939       8.343062
                         10       1    1gx2z2            1.089939       4.816869
                         10       1    1gxy3             1.089939       3.731131
                         10       1    1gxy2z            1.089939       8.343062
                         10       1    1gxyz2            1.089939       8.343062
                         10       1    1gxz3             1.089939       3.731131
                         10       1    1gy4              1.089939       1.410235
                         10       1    1gy3z             1.089939       3.731131
                         10       1    1gy2z2            1.089939       4.816869
                         10       1    1gyz3             1.089939       3.731131
                         10       1    1gz4              1.089939       1.410235

                         11       1    1fx3              1.279062       2.561301
                         11       1    1fx2y             1.279062       5.727242
                         11       1    1fx2z             1.279062       5.727242
                         11       1    1fxy2             1.279062       5.727242
                         11       1    1fxyz             1.279062       9.919874
                         11       1    1fxz2             1.279062       5.727242
                         11       1    1fy3              1.279062       2.561301
                         11       1    1fy2z             1.279062       5.727242
                         11       1    1fyz2             1.279062       5.727242
                         11       1    1fz3              1.279062       2.561301

                         12       1    1hx5              2.104959       8.334624
                         12       1    1hx4y             2.104959      25.003871
                         12       1    1hx4z             2.104959      25.003871
                         12       1    1hx3y2            2.104959      38.194044
                         12       1    1hx3yz            2.104959      66.154025
                         12       1    1hx3z2            2.104959      38.194044
                         12       1    1hx2y3            2.104959      38.194044
                         12       1    1hx2y2z           2.104959      85.404479
                         12       1    1hx2yz2           2.104959      85.404479
                         12       1    1hx2z3            2.104959      38.194044
                         12       1    1hxy4             2.104959      25.003871
                         12       1    1hxy3z            2.104959      66.154025
                         12       1    1hxy2z2           2.104959      85.404479
                         12       1    1hxyz3            2.104959      66.154025
                         12       1    1hxz4             2.104959      25.003871
                         12       1    1hy5              2.104959       8.334624
                         12       1    1hy4z             2.104959      25.003871
                         12       1    1hy3z2            2.104959      38.194044
                         12       1    1hy2z3            2.104959      38.194044
                         12       1    1hyz4             2.104959      25.003871
                         12       1    1hz5              2.104959       8.334624

                         13       1    1dx2              2.142178       6.243192
                         13       1    1dxy              2.142178      10.813525
                         13       1    1dxz              2.142178      10.813525
                         13       1    1dy2              2.142178       6.243192
                         13       1    1dyz              2.142178      10.813525
                         13       1    1dz2              2.142178       6.243192

                         14       1    1px               2.283963       4.002224
                         14       1    1py               2.283963       4.002224
                         14       1    1pz               2.283963       4.002224

                         15       1    1s                3.180437       1.697365

                         16       1    1gx4              4.257494      59.787315
                         16       1    1gx3y             4.257494     158.182366
                         16       1    1gx3z             4.257494     158.182366
                         16       1    1gx2y2            4.257494     204.212557
                         16       1    1gx2yz            4.257494     353.706524
                         16       1    1gx2z2            4.257494     204.212557
                         16       1    1gxy3             4.257494     158.182366
                         16       1    1gxy2z            4.257494     353.706524
                         16       1    1gxyz2            4.257494     353.706524
                         16       1    1gxz3             4.257494     158.182366
                         16       1    1gy4              4.257494      59.787315
                         16       1    1gy3z             4.257494     158.182366
                         16       1    1gy2z2            4.257494     204.212557
                         16       1    1gyz3             4.257494     158.182366
                         16       1    1gz4              4.257494      59.787315

                         17       1    1fx3              6.436393      97.140469
                         17       1    1fx2y             6.436393     217.212692
                         17       1    1fx2z             6.436393     217.212692
                         17       1    1fxy2             6.436393     217.212692
                         17       1    1fxyz             6.436393     376.223419
                         17       1    1fxz2             6.436393     217.212692
                         17       1    1fy3              6.436393      97.140469
                         17       1    1fy2z             6.436393     217.212692
                         17       1    1fyz2             6.436393     217.212692
                         17       1    1fz3              6.436393      97.140469

                         18       1    1px               7.309328      17.131165
                         18       1    1py               7.309328      17.131165
                         18       1    1pz               7.309328      17.131165

                         19       1    1dx2             11.258815     113.899456
                         19       1    1dxy             11.258815     197.279646
                         19       1    1dxz             11.258815     197.279646
                         19       1    1dy2             11.258815     113.899456
                         19       1    1dyz             11.258815     197.279646
                         19       1    1dz2             11.258815     113.899456

       Atomic covalent radius [Angstrom]:                                  0.730

       Atomic van der Waals radius [Angstrom]:                             1.520

     The atoms of this atomic kind are PAW atoms (GAPW):
       Hard Gaussian function radius:                                      1.512
       Rho0 radius:                                                        1.512
       Maximum GTO radius used for PAW projector construction:            24.566

     GAPW Soft Basis Set                                        aug-cc-pVQZ_soft

       Number of orbital shell sets:                                          10
       Number of orbital shells:                                              20
       Number of primitive Cartesian functions:                               17
       Number of Cartesian basis functions:                                  105
       Number of spherical basis functions:                                   80
       Norm type:                                                              2

       Normalised Cartesian orbitals:

                        Set   Shell   Orbital            Exponent    Coefficient

                          1       1    1px               0.053480       0.036659
                          1       1    1py               0.053480       0.036659
                          1       1    1pz               0.053480       0.036659

                          2       1    1s                0.069590       0.096565

                          3       1    1dx2              0.154000       0.062312
                          3       1    1dxy              0.154000       0.107927
                          3       1    1dxz              0.154000       0.107927
                          3       1    1dy2              0.154000       0.062312
                          3       1    1dyz              0.154000       0.107927
                          3       1    1dz2              0.154000       0.062312

                          4       1    1px               1.531000       2.427499
                                                         0.530200       0.000000
                                                         0.175000       0.000000
                          4       1    1py               1.531000       2.427499
                                                         0.530200       0.000000
                                                         0.175000       0.000000
                          4       1    1pz               1.531000       2.427499
                                                         0.530200       0.000000
                                                         0.175000       0.000000

                          4       2    2px               1.531000       0.865964
                                                         0.530200       0.289113
                                                         0.175000       0.039518
                          4       2    2py               1.531000       0.865964
                                                         0.530200       0.289113
                                                         0.175000       0.039518
                          4       2    2pz               1.531000       0.865964
                                                         0.530200       0.289113
                                                         0.175000       0.039518

                          4       3    3px               1.531000       0.000000
                                                         0.530200       0.644896
                                                         0.175000       0.000000
                          4       3    3py               1.531000       0.000000
                                                         0.530200       0.644896
                                                         0.175000       0.000000
                          4       3    3pz               1.531000       0.000000
                                                         0.530200       0.644896
                                                         0.175000       0.000000

                          4       4    4px               1.531000       0.000000
                                                         0.530200       0.000000
                                                         0.175000       0.161338
                          4       4    4py               1.531000       0.000000
                                                         0.530200       0.000000
                                                         0.175000       0.161338
                          4       4    4pz               1.531000       0.000000
                                                         0.530200       0.000000
                                                         0.175000       0.161338

                          5       1    1s                1.428000       0.016380
                                                         0.554700      -0.001146
                                                         0.206700       0.000208

                          5       2    2s                1.428000       0.931014
                                                         0.554700       0.000000
                                                         0.206700       0.000000

                          5       3    3s                1.428000       0.000000
                                                         0.554700       0.458093
                                                         0.206700       0.000000

                          5       4    4s                1.428000       0.269044
                                                         0.554700       0.268501
                                                         0.206700       0.060656

                          5       5    5s                1.428000       0.000000
                                                         0.554700       0.000000
                                                         0.206700       0.218482

                          6       1    1fx3              0.324000       0.116595
                          6       1    1fx2y             0.324000       0.260715
                          6       1    1fx2z             0.324000       0.260715
                          6       1    1fxy2             0.324000       0.260715
                          6       1    1fxyz             0.324000       0.451571
                          6       1    1fxz2             0.324000       0.260715
                          6       1    1fy3              0.324000       0.116595
                          6       1    1fy2z             0.324000       0.260715
                          6       1    1fyz2             0.324000       0.260715
                          6       1    1fz3              0.324000       0.116595

                          7       1    1dx2              3.775000      16.827288
                                                         1.300000       0.000000
                                                         0.444000       0.000000
                          7       1    1dxy              3.775000      29.145718
                                                         1.300000       0.000000
                                                         0.444000       0.000000
                          7       1    1dxz              3.775000      29.145718
                                                         1.300000       0.000000
                                                         0.444000       0.000000
                          7       1    1dy2              3.775000      16.827288
                                                         1.300000       0.000000
                                                         0.444000       0.000000
                          7       1    1dyz              3.775000      29.145718
                                                         1.300000       0.000000
                                                         0.444000       0.000000
                          7       1    1dz2              3.775000      16.827288
                                                         1.300000       0.000000
                                                         0.444000       0.000000

                          7       2    2dx2              3.775000       0.000000
                                                         1.300000       2.605016
                                                         0.444000       0.000000
                          7       2    2dxy              3.775000       0.000000
                                                         1.300000       4.512019
                                                         0.444000       0.000000
                          7       2    2dxz              3.775000       0.000000
                                                         1.300000       4.512019
                                                         0.444000       0.000000
                          7       2    2dy2              3.775000       0.000000
                                                         1.300000       2.605016
                                                         0.444000       0.000000
                          7       2    2dyz              3.775000       0.000000
                                                         1.300000       4.512019
                                                         0.444000       0.000000
                          7       2    2dz2              3.775000       0.000000
                                                         1.300000       2.605016
                                                         0.444000       0.000000

                          7       3    3dx2              3.775000       0.000000
                                                         1.300000       0.000000
                                                         0.444000       0.397493
                          7       3    3dxy              3.775000       0.000000
                                                         1.300000       0.000000
                                                         0.444000       0.688478
                          7       3    3dxz              3.775000       0.000000
                                                         1.300000       0.000000
                                                         0.444000       0.688478
                          7       3    3dy2              3.775000       0.000000
                                                         1.300000       0.000000
                                                         0.444000       0.397493
                          7       3    3dyz              3.775000       0.000000
                                                         1.300000       0.000000
                                                         0.444000       0.688478
                          7       3    3dz2              3.775000       0.000000
                                                         1.300000       0.000000
                                                         0.444000       0.397493

                          8       1    1gx4              0.714000       0.440662
                          8       1    1gx3y             0.714000       1.165882
                          8       1    1gx3z             0.714000       1.165882
                          8       1    1gx2y2            0.714000       1.505147
                          8       1    1gx2yz            0.714000       2.606991
                          8       1    1gx2z2            0.714000       1.505147
                          8       1    1gxy3             0.714000       1.165882
                          8       1    1gxy2z            0.714000       2.606991
                          8       1    1gxyz2            0.714000       2.606991
                          8       1    1gxz3             0.714000       1.165882
                          8       1    1gy4              0.714000       0.440662
                          8       1    1gy3z             0.714000       1.165882
                          8       1    1gy2z2            0.714000       1.505147
                          8       1    1gyz3             0.714000       1.165882
                          8       1    1gz4              0.714000       0.440662

                          9       1    1fx3              2.666000      13.370258
                                                         0.859000       0.000000
                          9       1    1fx2y             2.666000      29.896805
                                                         0.859000       0.000000
                          9       1    1fx2z             2.666000      29.896805
                                                         0.859000       0.000000
                          9       1    1fxy2             2.666000      29.896805
                                                         0.859000       0.000000
                          9       1    1fxyz             2.666000      51.782785
                                                         0.859000       0.000000
                          9       1    1fxz2             2.666000      29.896805
                                                         0.859000       0.000000
                          9       1    1fy3              2.666000      13.370258
                                                         0.859000       0.000000
                          9       1    1fy2z             2.666000      29.896805
                                                         0.859000       0.000000
                          9       1    1fyz2             2.666000      29.896805
                                                         0.859000       0.000000
                          9       1    1fz3              2.666000      13.370258
                                                         0.859000       0.000000

                          9       2    2fx3              2.666000       0.000000
                                                         0.859000       1.045777
                          9       2    2fx2y             2.666000       0.000000
                                                         0.859000       2.338428
                          9       2    2fx2z             2.666000       0.000000
                                                         0.859000       2.338428
                          9       2    2fxy2             2.666000       0.000000
                                                         0.859000       2.338428
                          9       2    2fxyz             2.666000       0.000000
                                                         0.859000       4.050277
                          9       2    2fxz2             2.666000       0.000000
                                                         0.859000       2.338428
                          9       2    2fy3              2.666000       0.000000
                                                         0.859000       1.045777
                          9       2    2fy2z             2.666000       0.000000
                                                         0.859000       2.338428
                          9       2    2fyz2             2.666000       0.000000
                                                         0.859000       2.338428
                          9       2    2fz3              2.666000       0.000000
                                                         0.859000       1.045777

                         10       1    1gx4              1.846000       6.005824
                         10       1    1gx3y             1.846000      15.889916
                         10       1    1gx3z             1.846000      15.889916
                         10       1    1gx2y2            1.846000      20.513794
                         10       1    1gx2yz            1.846000      35.530933
                         10       1    1gx2z2            1.846000      20.513794
                         10       1    1gxy3             1.846000      15.889916
                         10       1    1gxy2z            1.846000      35.530933
                         10       1    1gxyz2            1.846000      35.530933
                         10       1    1gxz3             1.846000      15.889916
                         10       1    1gy4              1.846000       6.005824
                         10       1    1gy3z             1.846000      15.889916
                         10       1    1gy2z2            1.846000      20.513794
                         10       1    1gyz3             1.846000      15.889916
                         10       1    1gz4              1.846000       6.005824

     AE Potential information for                                            ALL

       Description:                                       All-electron potential
                                          Krack, Parrinello, PCCP 2, 2105 (2000)

       Gaussian exponent of the core charge distribution:               8.154466
       Electronic configuration (s p d ...):                           4   4   0

  2. Atomic kind: S                                     Number of atoms:       1

     Orbital Basis Set                                               aug-cc-pVQZ

       Number of orbital shell sets:                                          10
       Number of orbital shells:                                              22
       Number of primitive Cartesian functions:                               38
       Number of Cartesian basis functions:                                  109
       Number of spherical basis functions:                                   84
       Norm type:                                                              2

       Normalised Cartesian orbitals:

                        Set   Shell   Orbital            Exponent    Coefficient

                          1       1    1px               0.031700       0.019066
                          1       1    1py               0.031700       0.019066
                          1       1    1pz               0.031700       0.019066

                          2       1    1s                0.042800       0.067065

                          3       1    1dx2              0.074800       0.017609
                          3       1    1dxy              0.074800       0.030500
                          3       1    1dxz              0.074800       0.030500
                          3       1    1dy2              0.074800       0.017609
                          3       1    1dyz              0.074800       0.030500
                          3       1    1dz2              0.074800       0.017609

                          4       1    1px            1546.000000       6.096361
                                                       366.400000       8.627460
                                                       118.400000      11.042915
                                                        44.530000      12.167369
                                                        18.380000      10.704304
                                                         7.965000       6.710904
                                                         3.541000       2.621971
                                                         1.591000       0.435360
                                                         0.620500       0.011900
                                                         0.242000       0.000016
                                                         0.090140       0.000029
                          4       1    1py            1546.000000       6.096361
                                                       366.400000       8.627460
                                                       118.400000      11.042915
                                                        44.530000      12.167369
                                                        18.380000      10.704304
                                                         7.965000       6.710904
                                                         3.541000       2.621971
                                                         1.591000       0.435360
                                                         0.620500       0.011900
                                                         0.242000       0.000016
                                                         0.090140       0.000029
                          4       1    1pz            1546.000000       6.096361
                                                       366.400000       8.627460
                                                       118.400000      11.042915
                                                        44.530000      12.167369
                                                        18.380000      10.704304
                                                         7.965000       6.710904
                                                         3.541000       2.621971
                                                         1.591000       0.435360
                                                         0.620500       0.011900
                                                         0.242000       0.000016
                                                         0.090140       0.000029

                          4       2    2px            1546.000000       0.000000
                                                       366.400000       0.000000
                                                       118.400000       0.000000
                                                        44.530000       0.000000
                                                        18.380000       0.000000
                                                         7.965000       0.000000
                                                         3.541000       0.000000
                                                         1.591000       0.000000
                                                         0.620500       0.784996
                                                         0.242000       0.000000
                                                         0.090140       0.000000
                          4       2    2py            1546.000000       0.000000
                                                       366.400000       0.000000
                                                       118.400000       0.000000
                                                        44.530000       0.000000
                                                        18.380000       0.000000
                                                         7.965000       0.000000
                                                         3.541000       0.000000
                                                         1.591000       0.000000
                                                         0.620500       0.784996
                                                         0.242000       0.000000
                                                         0.090140       0.000000
                          4       2    2pz            1546.000000       0.000000
                                                       366.400000       0.000000
                                                       118.400000       0.000000
                                                        44.530000       0.000000
                                                        18.380000       0.000000
                                                         7.965000       0.000000
                                                         3.541000       0.000000
                                                         1.591000       0.000000
                                                         0.620500       0.784996
                                                         0.242000       0.000000
                                                         0.090140       0.000000

                          4       3    3px            1546.000000      -1.562979
                                                       366.400000      -2.190350
                                                       118.400000      -2.858551
                                                        44.530000      -3.158675
                                                        18.380000      -2.907508
                                                         7.965000      -1.831658
                                                         3.541000      -0.818282
                                                         1.591000       0.023514
                                                         0.620500       0.281689
                                                         0.242000       0.127217
                                                         0.090140       0.017521
                          4       3    3py            1546.000000      -1.562979
                                                       366.400000      -2.190350
                                                       118.400000      -2.858551
                                                        44.530000      -3.158675
                                                        18.380000      -2.907508
                                                         7.965000      -1.831658
                                                         3.541000      -0.818282
                                                         1.591000       0.023514
                                                         0.620500       0.281689
                                                         0.242000       0.127217
                                                         0.090140       0.017521
                          4       3    3pz            1546.000000      -1.562979
                                                       366.400000      -2.190350
                                                       118.400000      -2.858551
                                                        44.530000      -3.158675
                                                        18.380000      -2.907508
                                                         7.965000      -1.831658
                                                         3.541000      -0.818282
                                                         1.591000       0.023514
                                                         0.620500       0.281689
                                                         0.242000       0.127217
                                                         0.090140       0.017521

                          4       4    4px            1546.000000       0.000000
                                                       366.400000       0.000000
                                                       118.400000       0.000000
                                                        44.530000       0.000000
                                                        18.380000       0.000000
                                                         7.965000       0.000000
                                                         3.541000       0.000000
                                                         1.591000       0.000000
                                                         0.620500       0.000000
                                                         0.242000       0.241941
                                                         0.090140       0.000000
                          4       4    4py            1546.000000       0.000000
                                                       366.400000       0.000000
                                                       118.400000       0.000000
                                                        44.530000       0.000000
                                                        18.380000       0.000000
                                                         7.965000       0.000000
                                                         3.541000       0.000000
                                                         1.591000       0.000000
                                                         0.620500       0.000000
                                                         0.242000       0.241941
                                                         0.090140       0.000000
                          4       4    4pz            1546.000000       0.000000
                                                       366.400000       0.000000
                                                       118.400000       0.000000
                                                        44.530000       0.000000
                                                        18.380000       0.000000
                                                         7.965000       0.000000
                                                         3.541000       0.000000
                                                         1.591000       0.000000
                                                         0.620500       0.000000
                                                         0.242000       0.241941
                                                         0.090140       0.000000

                          4       5    5px            1546.000000       0.000000
                                                       366.400000       0.000000
                                                       118.400000       0.000000
                                                        44.530000       0.000000
                                                        18.380000       0.000000
                                                         7.965000       0.000000
                                                         3.541000       0.000000
                                                         1.591000       0.000000
                                                         0.620500       0.000000
                                                         0.242000       0.000000
                                                         0.090140       0.070402
                          4       5    5py            1546.000000       0.000000
                                                       366.400000       0.000000
[...]

 M. Frigo, S. G. Johnson.
 Proc. IEEE 93, 216-231 (2005).
 The design and implementation of FFTW3.
 https://doi.org/10.1109/JPROC.2004.840301

 R. L. Martin.
 J. Chem. Phys. 118, 4775-4777 (2003).
 Natural transition orbitals.
 https://doi.org/10.1063/1.1558471

 M. Krack, M. Parrinello.
 Phys. Chem. Chem. Phys. 2, 2105-2112 (2000).
 All-electron ab-initio molecular dynamics.
 https://doi.org/10.1039/b001167n

 G. Lippert, J. Hutter, M. Parrinello.
 Theor. Chem. Acc. 103, 124-140 (1999).
 The Gaussian and augmented-plane-wave density functional method for ab initio 
 molecular dynamics simulations.
 https://doi.org/10.1007/s002140050523

 J. P. Perdew, K. Burke, M. Ernzerhof.
 Phys. Rev. Lett. 77, 3865-3868 (1996).
 Generalized gradient approximation made simple.
 https://doi.org/10.1103/PhysRevLett.77.3865


 -------------------------------------------------------------------------------
 -                                                                             -
 -                                T I M I N G                                  -
 -                                                                             -
 -------------------------------------------------------------------------------
 SUBROUTINE                       CALLS  ASD         SELF TIME        TOTAL TIME
                                MAXIMUM       AVERAGE  MAXIMUM  AVERAGE  MAXIMUM
 CP2K                                 1  1.0    0.143    0.197 1155.563 1155.563
 qs_energies                          1  2.0    0.000    0.001 1152.823 1152.823
 qs_energies_properties               1  3.0    0.000    0.000  684.343  684.343
 tddfpt                               1  4.0    0.000    0.000  684.343  684.343
 tddfpt_energies                      1  5.0    0.000    0.001  684.060  684.060
 tddfpt_davidson_solver               1  6.0    0.004    0.005  678.463  678.463
 tddfpt_compute_Aop_evects           10  7.0    0.000    0.000  674.111  674.114
 integrate_four_center              502  9.8   13.518   25.519  654.789  655.004
 integrate_four_center_main         502 10.8   11.294   27.917  478.904  535.268
 integrate_four_center_bin        83222 11.9  467.610  526.814  467.610  526.814
 scf_env_do_scf                       1  3.0    0.000    0.000  462.140  462.154
 scf_env_do_scf_inner_loop          102  4.0    0.003    0.007  462.140  462.153
 qs_ks_update_qs_env                102  5.0    0.001    0.001  403.309  403.366
 rebuild_ks_matrix                  102  6.0    0.000    0.000  403.283  403.341
 qs_ks_build_kohn_sham_matrix       102  7.0    0.015    0.018  403.283  403.341
 tddfpt_apply_hfx                    10  8.0    0.005    0.005  372.762  372.763
 tddft_hfx_matrix                   400  9.0    0.013    0.014  367.581  367.745
 fhxc_kernel                         10  8.0    0.009    0.010  299.753  299.755
 hfx_ks_matrix                      102  8.0    0.004    0.005  287.238  287.294
 pw_poisson_solve                   302  9.3    3.143    4.142  135.329  136.860
 tddfpt_apply_coulomb               200  9.0    0.003    0.004  125.561  127.172
 mp_sync                           2672 11.5   84.492  113.925   84.492  113.925
 fft_wrap_pw1pw2                   6156 11.0    0.103    0.133  108.415  110.377
 fft_wrap_pw1pw2_250               4338 12.1    3.893    4.381  104.284  106.269
 fft3d_ps                          6156 13.0   21.360   24.934   97.216   99.558
 ps_wavelet_solve                   302 10.3   48.885   59.449   81.379   82.712
 qs_rho_update_rho_low              304  7.6    0.004    0.004   81.302   81.331
 mp_alltoall_z22v                  6156 15.0   72.481   75.379   72.481   75.379
 calculate_rho_elec                 304  8.6    1.113    1.405   74.010   74.038
 integrate_v_rspace                 302  9.0    0.008    0.010   69.667   69.960
 prepare_gapw_den                   303  8.7    0.011    0.014   63.415   63.454
 density_rs2pw                      304  9.6    0.015    0.018   47.918   57.258
 mp_alltoall_d54                    302 11.3   15.727   55.592   15.727   55.592
 mp_alltoall_d11v                 18004 11.6   43.686   55.040   43.686   55.040
 x_to_yz                           2824 13.7    1.572    2.063   49.312   51.421
 calc_screening_functions             1 10.0   37.286   38.895   49.301   50.973
 transfer_rs2pw                    1520 10.6    0.030    0.052   40.103   49.551
 mp_waitany                       70334 12.7   31.870   44.094   31.870   44.094
 grid_collocate_task_list           304  9.6   23.326   40.571   23.326   40.571
 calculate_rho_atom                1515  9.7   15.382   39.386   15.382   39.387
 rs_gather_matrices                 302 10.0    0.051    0.136   33.447   38.998
 grid_integrate_task_list           302 10.0    5.562   37.866    5.562   37.866
 transfer_rs2pw_250                 608 11.6    2.793    3.289   23.850   34.029
 gaVxcgb_GC                         906  9.7    1.849   34.005    1.849   34.005
 xc_pw_derive                      1815 11.0    0.012    0.014   32.131   32.477
 potential_pw2rs                    302 10.0    0.095    0.105   30.649   30.948
 transfer_pw2rs                    1511 10.9    0.021    0.024   27.723   29.212
 calculate_xc_2nd_deriv_atom        200  9.0    0.235    4.834    1.504   27.925
 mp_sum_dv                        51071  8.8   26.091   27.913   26.091   27.913
 yz_to_x                           2726 14.3    1.185    1.297   25.874   26.980
 tddfpt_apply_xc_analytic           200  9.0    0.076    0.087   25.514   25.709
 integrate_vhg0_rspace              302  9.3    4.456    4.742   25.041   25.228
 mp_waitall_1                    408128 13.3   18.616   23.366   18.616   23.366
 sum_up_and_integrate               102  8.0    0.001    0.002   22.568   22.636
 xc_pw_divergence                   302 10.7    0.006    0.007   21.075   21.387
 mp_sum_dm                        13789  9.8   20.305   21.306   20.305   21.306
 mp_sum_d                         18115  7.3   19.604   21.114   19.604   21.114
 mp_alltoall_d45                    303 11.3   16.296   20.870   16.296   20.870
 cp_fm_syevd                        155  7.2    0.001    0.002   20.652   20.705
 powell_optimize                8091214 11.0   20.001   20.686   20.001   20.686
 cp_fm_redistribute_end             155  8.2   10.285   20.413   10.308   20.424
 cp_fm_syevd_base                   155  8.2   10.069   20.197   10.069   20.197
 qs_scf_new_mos                     102  5.0    0.002    0.002   19.490   19.589
 eigensolver_symm                   102  6.0    0.005    0.006   18.160   18.179
 qs_vxc_create                      102  8.0    0.001    0.002   14.698   14.699
 xc_vxc_pw_create                   102  9.0    0.403    0.514   14.696   14.697
 xc_calc_2nd_deriv_analytical      1400 10.2    0.586    0.686   14.541   14.657
 transfer_pw2rs_250                 605 11.7    3.449    3.796   12.031   13.792
 calculate_vxc_atom                 102  8.0    0.126    1.288   12.857   12.858
 put_rho0_on_grid                   303  9.7    1.159    1.592   12.169   12.209
 gspace_mixing                      101  5.0    0.368    0.466   12.062   12.066
 transfer_rs2pw_90                  304 11.6    0.541    0.613    5.058   11.958
 calculate_rho0_atom               1515  9.7   11.334   11.767   11.334   11.767
 calc_pair_dist_radii                 1 10.0    3.359    3.452   11.344   11.636
 transfer_pw2rs_30                  302 12.0    5.910    6.914   10.607   10.844
 cp_dbcsr_sm_fm_multiply           1246  8.6    0.029    0.033   10.478   10.810
 broyden_mixing                     101  6.0    9.064    9.491    9.513    9.794
 transfer_rs2pw_30                  304 11.6    3.306    3.582    9.449    9.647
 mp_isendrecv_dv                 204216 12.2    3.016    8.894    3.016    8.894
 integrate_four_center_getP         502 10.8    1.010    1.117    8.512    8.595
 integrate_four_center_dist_KS      502 10.8    0.569    0.613    7.917    7.933
 mp_sendrecv_dv                   77216 12.6    7.294    7.684    7.294    7.684
 xc_rho_set_and_dset_create         103 10.0    0.264    0.315    6.770    7.432
 calculate_rho_atom_coeff           304  8.6    0.639    0.974    7.288    7.298
 dbcsr_complete_redistribute       4225 10.4    0.239    0.362    6.710    7.082
 mp_isend_dm3                     12126 12.7    1.648    5.744    1.648    5.744
 qs_energies_init_hamiltonians        1  3.0    0.000    0.000    5.713    5.713
 build_core_hamiltonian_matrix        1  4.0    0.000    0.000    5.704    5.704
 overlap_condnum                      1  5.0    0.000    0.000    5.680    5.694
 arnoldi_conjugate_gradient           5  6.0    0.069    0.083    5.442    5.442
 dbcsr_multiply_generic            1748 10.3    0.084    0.095    4.804    5.082
 copy_fm_to_dbcsr                  2851  9.5    0.015    0.017    4.594    4.971
 copy_dbcsr_to_fm                  1372  9.3    0.021    0.022    4.560    4.936
 tddfpt_print_nto_analysis            1  6.0    0.003    0.004    4.770    4.770
 cp2k_distribution_to_z_slices      302 10.3    2.190    2.414    3.956    4.221
 cp_fm_geeig                         20  7.0    0.001    0.001    4.112    4.114
 transfer_pw2rs_90                  302 12.0    0.512    0.576    3.406    3.936
 pw_scatter_p                      3126 12.7    3.673    3.900    3.673    3.900
 Vh_1c_gg_integrals                 302  9.3    0.254    3.645    3.661    3.746
 cp_dbcsr_sm_fm_multiply_core      1246  9.6    0.004    0.005    3.456    3.734
 mp_irecv_dm3                     12126 12.7    0.907    3.542    0.907    3.542
 mp_sum_l                          6680 10.6    2.117    3.377    2.117    3.377
 integrate_four_center_load         502 10.8    0.002    0.003    1.894    3.150
 hfx_load_balance                     1 11.0    0.000    0.000    1.892    3.148
 dbcsr_sym_matrix_vector_mult     10015  7.0    0.164    0.176    3.043    3.120
 multiply_cannon                   1748 11.3    0.178    0.184    2.767    3.081
 hfx_load_balance_range               1 12.0    0.000    0.001    1.824    3.078
 fft_wrap_pw1pw2_90                 606 11.8    0.119    0.159    2.722    2.829
 mp_alltoall_i11v                 14048 11.4    2.684    2.696    2.684    2.696
 multiply_cannon_loop              1748 12.3    0.280    0.313    2.277    2.583
 dbcsr_desymmetrize_deep           1373 10.3    0.032    0.046    2.178    2.563
 dbcsr_add_d                      15107  7.0    0.014    0.017    0.351    2.362
 cp_dbcsr_plus_fm_fm_t              302  8.3    0.005    0.006    2.312    2.354
 dbcsr_add_anytype                15107  8.0    0.025    0.193    0.337    2.346
 tddfpt_orthonormalize_psi1_psi      11  6.9    0.029    0.033    2.334    2.338
 parallel_gemm_fm                  1892  8.2    0.003    0.003    2.107    2.167
 parallel_gemm_fm_gemm             1892  9.2    0.003    0.003    2.104    2.164
 cp_fm_gemm                        1892 10.2    2.101    2.161    2.101    2.161
 update_ks_atom                     302  8.7    0.503    0.720    1.855    2.053
 pw_gather_p                       3030 13.2    1.896    2.045    1.896    2.045
 rs_grid_zero                      1513 11.9    1.780    2.031    1.780    2.031
 mp_alltoall_i22                   5598 11.4    1.298    1.996    1.298    1.996
 create_qs_kind_set                   1  2.0    0.000    0.000    1.899    1.900
 read_qs_kind                         5  3.0    1.072    1.089    1.899    1.900
 pw_integral_ab_c1d_c1d_gs          302 10.3    1.599    1.619    1.830    1.865
 transfer_rs2pw_10                  304 11.6    0.565    0.600    1.716    1.857
 transfer_pw2rs_10                  302 12.0    0.585    0.641    1.659    1.844
 dbcsr_finalize                   23417 11.1    0.095    0.541    0.552    1.806
 tddfpt_compute_residual_vects        9  7.0    0.001    0.002    1.676    1.677
 multiply_cannon_metrocomm3       27968 13.3    0.085    0.095    1.042    1.623
 xc_functional_eval                1915 10.9    0.001    0.008    0.986    1.596
 tddfpt_apply_energy_diff            10  8.0    0.001    0.002    1.596    1.596
 pbe_lda_eval                      1915 11.9    0.985    1.593    0.985    1.593
 pw_derive                         2721 11.8    1.433    1.575    1.433    1.575
 mp_isend_dv                     115390 13.5    0.959    1.557    0.959    1.557
 pw_copy_to_array                  3030 13.2    0.883    1.510    0.883    1.510
 make_m2s                          3496 11.3    0.053    0.066    1.348    1.428
 mp_bcast_dm                       9060  9.7    1.352    1.404    1.352    1.404
 dbcsr_rep_row_to_rep_col_vec     10015  8.0    0.063    0.073    0.569    1.359
 dbcsr_col_vec_to_rep_row         10015  8.0    0.077    0.090    1.141    1.291
 pw_copy                           4135 10.9    1.144    1.222    1.144    1.222
 hybrid_alltoall_any               4869 13.4    0.046    0.087    1.127    1.220
 make_images                       3496 12.3    0.281    0.333    1.154    1.211
 multiply_cannon_multrec          27968 13.3    0.325    1.083    0.334    1.094
 rs_scatter_matrices                304  9.6    0.008    0.014    1.015    1.068
 mp_bcast_dv                      10170  9.0    0.802    1.007    0.802    1.007
 dbcsr_merge_all                  21387 12.1    0.227    0.713    0.317    0.921
 fft_wrap_pw1pw2_30                 606 11.8    0.024    0.026    0.788    0.914
 calculate_dm_sparse                102  6.0    0.001    0.002    0.875    0.901
 pw_poisson_set                     303 10.3    0.006    0.006    0.849    0.887
 parser_read_line                228719  4.0    0.077    0.085    0.827    0.837
 multiply_cannon_metrocomm4       26220 13.3    0.080    0.085    0.325    0.823
 dbcsr_iterator_start            145847  9.4    0.391    0.657    0.434    0.810
 mp_irecv_dv                     112944 13.5    0.280    0.808    0.280    0.808
 parser_read_line_low               252  5.0    0.075    0.334    0.750    0.763
 pw_copy_from_array                3126 12.7    0.600    0.711    0.600    0.711
 broadcast_input_information        252  6.0    0.176    0.191    0.675    0.705
 cp_fm_symm                         102  7.0    0.677    0.691    0.677    0.691
 pw_poisson_rebuild                 302 10.3    0.000    0.000    0.663    0.680
 ps_wavelet_create                    1 10.0    0.000    0.000    0.663    0.680
 RS_z_slice_distribution              1 11.0    0.584    0.653    0.663    0.680
 cp_fm_trace_a1b1t1_aa            20310  8.0    0.141    0.158    0.664    0.679
 scale_and_distribute               604 11.3    0.550    0.625    0.550    0.625
 pw_axpy                           3228 10.7    0.557    0.610    0.557    0.610
 pw_zero                           3218 10.6    0.503    0.566    0.503    0.566
 init_scf_run                         1  3.0    0.000    0.000    0.556    0.556
 qs_init_subsys                       1  2.0    0.008    0.009    0.553    0.553
 multiply_cannon_metrocomm1       27968 13.3    0.045    0.047    0.129    0.543
 fft_wrap_pw1pw2_10                 606 11.8    0.008    0.008    0.518    0.525
 mp_max_i                           812  5.3    0.406    0.507    0.406    0.507
 tddfpt_construct_ground_state_       1  6.0    0.000    0.000    0.489    0.490
 cp_fm_redistribute_start           155  8.2    0.214    0.413    0.274    0.487
 qs_env_setup                         1  3.0    0.000    0.000    0.474    0.483
 make_images_sizes                 3496 13.3    0.004    0.005    0.418    0.482
 qs_env_rebuild_pw_env                2  3.5    0.000    0.000    0.473    0.481
 pw_env_rebuild                       1  5.0    0.001    0.001    0.473    0.481
 mp_alltoall_i44                   3496 14.3    0.413    0.478    0.413    0.478
 cp_fm_triangular_multiply           60  8.0    0.468    0.472    0.468    0.472
 dbcsr_sym_matrix_vector_mult_l   10015  8.0    0.188    0.333    0.302    0.444
 offload_free_buffer                310 10.1    0.248    0.441    0.248    0.441
 dbcsr_copy                       44392  7.8    0.258    0.300    0.376    0.420
 xc_2nd_deriv_of_r                 1200 10.0    0.004    0.114    0.015    0.417
 dbcsr_iterator_stop             145847  9.4    0.230    0.368    0.259    0.405
 dbcsr_work_create                28004 12.0    0.099    0.245    0.158    0.392
 scf_env_initial_rho_setup            1  4.0    0.000    0.000    0.374    0.374
 mp_cart_sub                       2747 11.3    0.367    0.373    0.367    0.373
 make_images_data                  3496 13.3    0.044    0.056    0.254    0.364
 mp_bcast_am_src                    252  7.0    0.244    0.331    0.267    0.360
 mp_alltoall_z11v                   606 14.8    0.351    0.358    0.351    0.358
 dbcsr_work_destroy_all           28004 13.0    0.087    0.222    0.132    0.329
 mp_bcast_i_src                    1008  7.0    0.222    0.316    0.222    0.316
 dbcsr_create_new                 68300  9.9    0.231    0.245    0.293    0.309
 mp_cart_create                    2887 10.4    0.248    0.292    0.251    0.297
 multiply_cannon_metrocomm2       24472 13.3    0.076    0.090    0.166    0.291
 compute_max_radius                   1  6.0    0.262    0.269    0.262    0.269
 mp_allgather_i34                  1748 12.3    0.186    0.263    0.186    0.263
 dbcsr_data_new                  362670 12.1    0.146    0.247    0.146    0.247
 cp_fm_triangular_invert             20  8.0    0.236    0.237    0.236    0.237
 dbcsr_scale_anytype              15109  9.0    0.038    0.054    0.187    0.235
 cp_fm_cholesky_decompose            21  8.0    0.224    0.224    0.224    0.224
 mp_rank_compare                   6156 14.0    0.208    0.214    0.208    0.214
 pw_grid_setup                        4  6.0    0.000    0.000    0.196    0.204
 pw_grid_setup_internal               4  7.0    0.005    0.005    0.196    0.204
 dbcsr_data_release              529067 11.7    0.122    0.199    0.122    0.199
 cp_fm_power                          1  6.0    0.002    0.004    0.195    0.195
 yz_to_xz                           302 14.0    0.009    0.010    0.190    0.194
 tddfpt_orthogonalize_psi1_psi0      11  6.9    0.000    0.000    0.183    0.193
 prepare_dr1dr                     1400 11.2    0.157    0.192    0.157    0.192
 copy_fm_to_dbcsr_bc               2851 10.5    0.053    0.067    0.163    0.190
 tddfpt_init_mos                      1  5.0    0.000    0.000    0.189    0.189
 tddfpt_init_ground_state_mos         1  6.0    0.000    0.000    0.189    0.189
 xz_to_yz                           304 13.6    0.007    0.008    0.178    0.181
 tddfpt_compute_ritz_vects           10  7.0    0.005    0.005    0.177    0.178
 create_fast_col_vec_access       20030  8.0    0.123    0.133    0.167    0.177
 create_fast_row_vec_access       20030  8.0    0.121    0.132    0.166    0.177
 eigensolver                          1  7.0    0.000    0.000    0.175    0.175
 dbcsr_iterator_seek             145847 10.4    0.044    0.155    0.044    0.155
 cp_fm_write_unformatted             46  7.4    0.064    0.124    0.072    0.143
 tddfpt_is_nonorthogonal_psi1_p       9  7.0    0.000    0.000    0.135    0.136
 pw_grid_sort                         4  8.0    0.076    0.079    0.112    0.116
 -------------------------------------------------------------------------------

 The number of warnings for this run is : 2
 
 -------------------------------------------------------------------------------
  **** **** ******  **  PROGRAM ENDED AT                 2025-04-14 07:56:47.668
 ***** ** ***  *** **   PROGRAM RAN ON                              i02r02c01s06
 **    ****   ******    PROGRAM RAN BY                                   di38fab
 ***** **    ** ** **   PROGRAM PROCESS ID                               1908235
  **** **  *******  **  PROGRAM STOPPED IN /hppfs/scratch/04/di38fab/05_MOL/aUKB
                                           qsEOTmq69kFe5R_nOg/5k_set_final_qzvp/
                                           KADZOE/aug-cc-pVQZ/TDDFT
