 DBCSR| CPU Multiplication driver                                           BLAS (U)
 DBCSR| Multrec recursion limit                                              512 (U)
 DBCSR| Multiplication stack size                                           1000 (D)
 DBCSR| Maximum elements for images                                    UNLIMITED (U)
 DBCSR| Multiplicative factor virtual images                                   1 (U)
 DBCSR| Use multiplication densification                                       T (D)
 DBCSR| Multiplication size stacks                                             3 (U)
 DBCSR| Use memory pool for CPU allocation                                     F (U)
 DBCSR| Number of 3D layers                                               SINGLE (U)
 DBCSR| Use MPI memory allocation                                              F (U)
 DBCSR| Use RMA algorithm                                                      F (U)
 DBCSR| Use Communication thread                                               T (U)
 DBCSR| Communication thread load                                             75 (D)
 DBCSR| MPI: My process id                                                     0
 DBCSR| MPI: Number of processes                                              96
 DBCSR| OMP: Current number of threads                                         4
 DBCSR| OMP: Max number of threads                                             4
 DBCSR| Split modifier for TAS multiplication algorithm                  1.0E+00 (U)


  **** **** ******  **  PROGRAM STARTED AT               2025-04-28 09:13:33.600
 ***** ** ***  *** **   PROGRAM STARTED ON                          i04r01c01s01
 **    ****   ******    PROGRAM STARTED BY                               di38fab
 ***** **    ** ** **   PROGRAM PROCESS ID                               1786391
  **** **  *******  **  PROGRAM STARTED IN /hppfs/scratch/04/di38fab/07_MOL_non_
                                           aug/05_MOL_non_aug/05_MOL/W4-11+ALK/f
                                           oof/cc-pVTZ/TDDFT

 CP2K| version string:                 CP2K version 2025.1 (Development Version)
 CP2K| source code revision number:                             unknown revision
 CP2K| cp2kflags: omp libint fftw3 libxc parallel scalapack max_contr=4         
 CP2K| is freely available from                            https://www.cp2k.org/
 CP2K| Program compiled at                         Thu Apr 10 16:20:23 CEST 2025
 CP2K| Program compiled on                                               login01
 CP2K| Program compiled for                                        Supermuc-foss
 CP2K| Data directory path                  /hppfs/work/pn36zo/di38fab/cp2k/data
 CP2K| Input file name                                                    GW.inp

 GLOBAL| Force Environment number                                              1
 GLOBAL| Basis set file name            /hppfs/scratch/04/di38fab/04_TMD/BASIS_A
 GLOBAL| Potential file name            /hppfs/work/pn36zo/di38fab/cp2k/data/ALL
 GLOBAL| MM Potential file name                                     MM_POTENTIAL
 GLOBAL| Coordinate file name                                      __STD_INPUT__
 GLOBAL| Method name                                                        CP2K
 GLOBAL| Project name                                                       MoS2
 GLOBAL| Run type                                                         ENERGY
 GLOBAL| FFT library                                                       FFTW3
 GLOBAL| Diagonalization library                                       ScaLAPACK
 GLOBAL| DGEMM library                                                      BLAS
 GLOBAL| Orthonormality check for eigenvectors                          DISABLED
 GLOBAL| Matrix multiplication library                                 ScaLAPACK
 GLOBAL| All-to-all communication in single precision                          F
 GLOBAL| FFTs using library dependent lengths                                  F
 GLOBAL| Grid backend                                                       AUTO
 GLOBAL| Global print level                                               MEDIUM
 GLOBAL| MPI I/O enabled                                                       T
 GLOBAL| Total number of message passing processes                            96
 GLOBAL| Number of threads for this process                                    4
 GLOBAL| This output is from process                                           0
 GLOBAL| OpenMP stack size per thread (OMP_STACKSIZE)                    default
 GLOBAL| CPU model name             Intel(R) Xeon(R) Platinum 8174 CPU @ 3.10GHz

 MEMORY| system memory details [Kb]
 MEMORY|                        rank 0           min           max       average
 MEMORY| MemTotal             98436660      98436660      98436708      98436667
 MEMORY| MemFree              83160332      83160332      84711008      84039581
 MEMORY| Buffers                     0             0             0             0
 MEMORY| Cached                2402892       2402892       2434324       2419169
 MEMORY| Slab                  1290452       1121052       1290452       1213846
 MEMORY| SReclaimable           273492        253444        273544        266815
 MEMORY| MemLikelyFree        85836716      85836716      87398776      86725566


 *** Fundamental physical constants (SI units) ***

 *** Literature: B. J. Mohr and B. N. Taylor,
 ***             CODATA recommended values of the fundamental physical
 ***             constants: 2006, Web Version 5.1
 ***             http://physics.nist.gov/constants

 Speed of light in vacuum [m/s]                             2.99792458000000E+08
 Magnetic constant or permeability of vacuum [N/A**2]       1.25663706143592E-06
 Electric constant or permittivity of vacuum [F/m]          8.85418781762039E-12
 Planck constant (h) [J*s]                                  6.62606896000000E-34
 Planck constant (h-bar) [J*s]                              1.05457162825177E-34
 Elementary charge [C]                                      1.60217648700000E-19
 Electron mass [kg]                                         9.10938215000000E-31
 Electron g factor [ ]                                     -2.00231930436220E+00
 Proton mass [kg]                                           1.67262163700000E-27
 Fine-structure constant                                    7.29735253760000E-03
 Rydberg constant [1/m]                                     1.09737315685270E+07
 Avogadro constant [1/mol]                                  6.02214179000000E+23
 Boltzmann constant [J/K]                                   1.38065040000000E-23
 Atomic mass unit [kg]                                      1.66053878200000E-27
 Bohr radius [m]                                            5.29177208590000E-11

 *** Conversion factors ***

 [u] -> [a.u.]                                              1.82288848426455E+03
 [Angstrom] -> [Bohr] = [a.u.]                              1.88972613288564E+00
 [a.u.] = [Bohr] -> [Angstrom]                              5.29177208590000E-01
 [a.u.] -> [s]                                              2.41888432650478E-17
 [a.u.] -> [fs]                                             2.41888432650478E-02
 [a.u.] -> [J]                                              4.35974393937059E-18
 [a.u.] -> [N]                                              8.23872205491840E-08
 [a.u.] -> [K]                                              3.15774647902944E+05
 [a.u.] -> [kJ/mol]                                         2.62549961709828E+03
 [a.u.] -> [kcal/mol]                                       6.27509468713739E+02
 [a.u.] -> [Pa]                                             2.94210107994716E+13
 [a.u.] -> [bar]                                            2.94210107994716E+08
 [a.u.] -> [atm]                                            2.90362800883016E+08
 [a.u.] -> [eV]                                             2.72113838565563E+01
 [a.u.] -> [Hz]                                             6.57968392072181E+15
 [a.u.] -> [1/cm] (wave numbers)                            2.19474631370540E+05
 [a.u./Bohr**2] -> [1/cm]                                   5.14048714338585E+03
 

 CELL_TOP| Volume [angstrom^3]:                                     27000.000000
 CELL_TOP| Vector a [angstrom    30.000     0.000     0.000   |a| =    30.000000
 CELL_TOP| Vector b [angstrom     0.000    30.000     0.000   |b| =    30.000000
 CELL_TOP| Vector c [angstrom     0.000     0.000    30.000   |c| =    30.000000
 CELL_TOP| Angle (b,c), alpha [degree]:                                90.000000
 CELL_TOP| Angle (a,c), beta  [degree]:                                90.000000
 CELL_TOP| Angle (a,b), gamma [degree]:                                90.000000
 CELL_TOP| Numerically orthorhombic:                                         YES
 CELL_TOP| Periodicity                                                      NONE

 GENERATE|  Preliminary Number of Bonds generated:                             0
 GENERATE|  Achieved consistency in connectivity generation.

 CELL| Volume [angstrom^3]:                                         27000.000000
 CELL| Vector a [angstrom]:      30.000     0.000     0.000   |a| =    30.000000
 CELL| Vector b [angstrom]:       0.000    30.000     0.000   |b| =    30.000000
 CELL| Vector c [angstrom]:       0.000     0.000    30.000   |c| =    30.000000
 CELL| Angle (b,c), alpha [degree]:                                    90.000000
 CELL| Angle (a,c), beta  [degree]:                                    90.000000
 CELL| Angle (a,b), gamma [degree]:                                    90.000000
 CELL| Numerically orthorhombic:                                             YES
 CELL| Periodicity                                                          NONE

 CELL_REF| Volume [angstrom^3]:                                     27000.000000
 CELL_REF| Vector a [angstrom    30.000     0.000     0.000   |a| =    30.000000
 CELL_REF| Vector b [angstrom     0.000    30.000     0.000   |b| =    30.000000
 CELL_REF| Vector c [angstrom     0.000     0.000    30.000   |c| =    30.000000
 CELL_REF| Angle (b,c), alpha [degree]:                                90.000000
 CELL_REF| Angle (a,c), beta  [degree]:                                90.000000
 CELL_REF| Angle (a,b), gamma [degree]:                                90.000000
 CELL_REF| Numerically orthorhombic:                                         YES
 CELL_REF| Periodicity                                                      NONE

 *******************************************************************************
 *******************************************************************************
 **                                                                           **
 **     #####                         ##              ##                      **
 **    ##   ##            ##          ##              ##                      **
 **   ##     ##                       ##            ######                    **
 **   ##     ##  ##   ##  ##   #####  ##  ##   ####   ##    #####    #####    **
 **   ##     ##  ##   ##  ##  ##      ## ##   ##      ##   ##   ##  ##   ##   **
 **   ##  ## ##  ##   ##  ##  ##      ####     ###    ##   ######   ######    **
 **    ##  ###   ##   ##  ##  ##      ## ##      ##   ##   ##       ##        **
 **     #######   #####   ##   #####  ##  ##  ####    ##    #####   ##        **
 **           ##                                                    ##        **
 **                                                                           **
 **                                                ... make the atoms dance   **
 **                                                                           **
 **            Copyright (C) by CP2K developers group (2000-2025)             **
 **                      J. Chem. Phys. 152, 194103 (2020)                    **
 **                                                                           **
 *******************************************************************************

 DFT| Spin restricted Kohn-Sham (RKS) calculation                            RKS
 DFT| Multiplicity                                                             1
 DFT| Number of spin states                                                    1
 DFT| Charge                                                                   0
 DFT| Self-interaction correction (SIC)                                       NO
 DFT| Cutoffs: density                                              1.000000E-10
 DFT|          gradient                                             1.000000E-10
 DFT|          tau                                                  1.000000E-10
 DFT|          cutoff_smoothing_range                               0.000000E+00
 DFT| XC density smoothing                                                  NONE
 DFT| XC derivatives                                                          PW

 FUNCTIONAL| PBE:
 FUNCTIONAL| J.P.Perdew, K.Burke, M.Ernzerhof, Phys. Rev. Letter, vol. 77, n 18,
 FUNCTIONAL|  pp. 3865-3868, (1996)sx=0.750sc=1.000{spin unpolarized}           


 QS| Method:                                                                GAPW
 QS| Density plane wave grid type                        NON-SPHERICAL FULLSPACE
 QS| Number of grid levels:                                                    4
 QS| Density cutoff [a.u.]:                                                250.0
 QS| Multi grid cutoff [a.u.]: 1) grid level                               250.0
 QS|                           2) grid level                                83.3
 QS|                           3) grid level                                27.8
 QS|                           4) grid level                                 9.3
 QS| Grid level progression factor:                                          3.0
 QS| Relative density cutoff [a.u.]:                                        50.0
 QS| Interaction thresholds: eps_pgf_orb:                                1.0E-12
 QS|                         eps_filter_matrix:                          0.0E+00
 QS|                         eps_core_charge:                            1.0E-14
 QS|                         eps_rho_gspace:                             1.0E-12
 QS|                         eps_rho_rspace:                             1.0E-12
 QS|                         eps_gvg_rspace:                             1.0E-06
 QS|                         eps_ppl:                                    1.0E-02
 QS|                         eps_ppnl:                                   1.0E-08
 QS| GAPW|      One center basis from orbital basis primitives
 QS| GAPW|                   eps_fit:                                    1.0E-04
 QS| GAPW|                   eps_iso:                                    1.0E-12
 QS| GAPW|                   eps_svd:                                    1.0E-08
 QS| GAPW|                   eps_cpc:                                    1.0E-12
 QS| GAPW|   atom-r-grid: quadrature:                                     GC_LOG
 QS| GAPW|      atom-s-grid:  max l :                                          6
 QS| GAPW|      max_l_rho0 :                                                   2


 ATOMIC KIND INFORMATION

  1. Atomic kind: F                                     Number of atoms:       2

     Orbital Basis Set                                                   cc-pVTZ

       Number of orbital shell sets:                                           4
       Number of orbital shells:                                              10
       Number of primitive Cartesian functions:                               18
       Number of Cartesian basis functions:                                   35
       Number of spherical basis functions:                                   30
       Norm type:                                                              2

       Normalised Cartesian orbitals:

                        Set   Shell   Orbital            Exponent    Coefficient

                          1       1    1px              43.880000       0.000000
                                                         9.926000       0.000000
                                                         2.930000       0.000000
                                                         0.913200       1.272470
                                                         0.267200       0.000000
                          1       1    1py              43.880000       0.000000
                                                         9.926000       0.000000
                                                         2.930000       0.000000
                                                         0.913200       1.272470
                                                         0.267200       0.000000
                          1       1    1pz              43.880000       0.000000
                                                         9.926000       0.000000
                                                         2.930000       0.000000
                                                         0.913200       1.272470
                                                         0.267200       0.000000

                          1       2    2px              43.880000       2.682741
                                                         9.926000       2.623662
                                                         2.930000       1.733564
                                                         0.913200       0.620129
                                                         0.267200       0.091626
                          1       2    2py              43.880000       2.682741
                                                         9.926000       2.623662
                                                         2.930000       1.733564
                                                         0.913200       0.620129
                                                         0.267200       0.091626
                          1       2    2pz              43.880000       2.682741
                                                         9.926000       2.623662
                                                         2.930000       1.733564
                                                         0.913200       0.620129
                                                         0.267200       0.091626

                          1       3    3px              43.880000       0.000000
                                                         9.926000       0.000000
                                                         2.930000       0.000000
                                                         0.913200       0.000000
                                                         0.267200       0.273833
                          1       3    3py              43.880000       0.000000
                                                         9.926000       0.000000
                                                         2.930000       0.000000
                                                         0.913200       0.000000
                                                         0.267200       0.273833
                          1       3    3pz              43.880000       0.000000
                                                         9.926000       0.000000
                                                         2.930000       0.000000
                                                         0.913200       0.000000
                                                         0.267200       0.273833

                          2       1    1s            19500.000000       0.596272
                                                      2923.000000       1.111476
                                                       664.500000       1.884225
                                                       187.500000       2.853273
                                                        60.620000       3.568027
                                                        21.420000       3.071739
                                                         7.950000       1.180889
                                                         2.257000       0.056738
                                                         0.881500      -0.005117
                                                         0.304100       0.000696

                          2       2    2s            19500.000000       0.000000
                                                      2923.000000       0.000000
                                                       664.500000       0.000000
                                                       187.500000       0.000000
                                                        60.620000       0.000000
                                                        21.420000       0.000000
                                                         7.950000       0.000000
                                                         2.257000       1.312377
                                                         0.881500       0.000000
                                                         0.304100       0.000000

                          2       3    3s            19500.000000      -0.137601
                                                      2923.000000      -0.258390
                                                       664.500000      -0.439994
                                                       187.500000      -0.689248
                                                        60.620000      -0.923674
                                                        21.420000      -0.993536
                                                         7.950000      -0.596518
                                                         2.257000       0.225237
                                                         0.881500       0.392295
                                                         0.304100       0.107845

                          2       4    4s            19500.000000       0.000000
                                                      2923.000000       0.000000
                                                       664.500000       0.000000
                                                       187.500000       0.000000
                                                        60.620000       0.000000
                                                        21.420000       0.000000
                                                         7.950000       0.000000
                                                         2.257000       0.000000
                                                         0.881500       0.000000
                                                         0.304100       0.291859

                          3       1    1dx2              3.107000      11.967589
                                                         0.855000       0.000000
                          3       1    1dxy              3.107000      20.728471
                                                         0.855000       0.000000
                          3       1    1dxz              3.107000      20.728471
                                                         0.855000       0.000000
                          3       1    1dy2              3.107000      11.967589
                                                         0.855000       0.000000
                          3       1    1dyz              3.107000      20.728471
                                                         0.855000       0.000000
                          3       1    1dz2              3.107000      11.967589
                                                         0.855000       0.000000

                          3       2    2dx2              3.107000       0.000000
                                                         0.855000       1.251267
                          3       2    2dxy              3.107000       0.000000
                                                         0.855000       2.167259
                          3       2    2dxz              3.107000       0.000000
                                                         0.855000       2.167259
                          3       2    2dy2              3.107000       0.000000
                                                         0.855000       1.251267
                          3       2    2dyz              3.107000       0.000000
                                                         0.855000       2.167259
                          3       2    2dz2              3.107000       0.000000
                                                         0.855000       1.251267

                          4       1    1fx3              1.917000       6.365818
                          4       1    1fx2y             1.917000      14.234401
                          4       1    1fx2z             1.917000      14.234401
                          4       1    1fxy2             1.917000      14.234401
                          4       1    1fxyz             1.917000      24.654706
                          4       1    1fxz2             1.917000      14.234401
                          4       1    1fy3              1.917000       6.365818
                          4       1    1fy2z             1.917000      14.234401
                          4       1    1fyz2             1.917000      14.234401
                          4       1    1fz3              1.917000       6.365818

     RI Auxiliary Basis Set                                        cc-pVTZ-RIFIT

       Number of orbital shell sets:                                          23
       Number of orbital shells:                                              23
       Number of primitive Cartesian functions:                               23
       Number of Cartesian basis functions:                                  101
       Number of spherical basis functions:                                   81
       Norm type:                                                              2

       Normalised Cartesian orbitals:

                        Set   Shell   Orbital            Exponent    Coefficient

                          1       1    1s                0.452493       0.393205

                          2       1    1dx2              0.626987       0.727130
                          2       1    1dxy              0.626987       1.259427
                          2       1    1dxz              0.626987       1.259427
                          2       1    1dy2              0.626987       0.727130
                          2       1    1dyz              0.626987       1.259427
                          2       1    1dz2              0.626987       0.727130

                          3       1    1px               0.648796       0.829995
                          3       1    1py               0.648796       0.829995
                          3       1    1pz               0.648796       0.829995

                          4       1    1s                1.055048       0.741932

                          5       1    1px               1.260979       1.904692
                          5       1    1py               1.260979       1.904692
                          5       1    1pz               1.260979       1.904692

                          6       1    1fx3              1.439373       3.340752
                          6       1    1fx2y             1.439373       7.470148
                          6       1    1fx2z             1.439373       7.470148
                          6       1    1fxy2             1.439373       7.470148
                          6       1    1fxyz             1.439373      12.938676
                          6       1    1fxz2             1.439373       7.470148
                          6       1    1fy3              1.439373       3.340752
                          6       1    1fy2z             1.439373       7.470148
                          6       1    1fyz2             1.439373       7.470148
                          6       1    1fz3              1.439373       3.340752

                          7       1    1dx2              1.523280       3.437750
                          7       1    1dxy              1.523280       5.954357
                          7       1    1dxz              1.523280       5.954357
                          7       1    1dy2              1.523280       3.437750
                          7       1    1dyz              1.523280       5.954357
                          7       1    1dz2              1.523280       3.437750

                          8       1    1s                1.762717       1.090303

                          9       1    1px               2.636687       4.789204
                          9       1    1py               2.636687       4.789204
                          9       1    1pz               2.636687       4.789204

                         10       1    1fx3              2.969813      17.044917
                         10       1    1fx2y             2.969813      38.113592
                         10       1    1fx2z             2.969813      38.113592
                         10       1    1fxy2             2.969813      38.113592
                         10       1    1fxyz             2.969813      66.014679
                         10       1    1fxz2             2.969813      38.113592
                         10       1    1fy3              2.969813      17.044917
                         10       1    1fy2z             2.969813      38.113592
                         10       1    1fyz2             2.969813      38.113592
                         10       1    1fz3              2.969813      17.044917

                         11       1    1gx4              3.115637      25.333150
                         11       1    1gx3y             3.115637      67.025215
                         11       1    1gx3z             3.115637      67.025215
                         11       1    1gx2y2            3.115637      86.529180
                         11       1    1gx2yz            3.115637     149.872936
                         11       1    1gx2z2            3.115637      86.529180
                         11       1    1gxy3             3.115637      67.025215
                         11       1    1gxy2z            3.115637     149.872936
                         11       1    1gxyz2            3.115637     149.872936
                         11       1    1gxz3             3.115637      67.025215
                         11       1    1gy4              3.115637      25.333150
                         11       1    1gy3z             3.115637      67.025215
                         11       1    1gy2z2            3.115637      86.529180
                         11       1    1gyz3             3.115637      67.025215
                         11       1    1gz4              3.115637      25.333150

                         12       1    1s                3.665445       1.888014

                         13       1    1dx2              3.818510      17.168160
                         13       1    1dxy              3.818510      29.736125
                         13       1    1dxz              3.818510      29.736125
                         13       1    1dy2              3.818510      17.168160
                         13       1    1dyz              3.818510      29.736125
                         13       1    1dz2              3.818510      17.168160

                         14       1    1px               4.756681      10.013137
                         14       1    1py               4.756681      10.013137
                         14       1    1pz               4.756681      10.013137

                         15       1    1fx3              6.194743      89.126498
                         15       1    1fx2y             6.194743     199.292907
                         15       1    1fx2z             6.194743     199.292907
                         15       1    1fxy2             6.194743     199.292907
                         15       1    1fxyz             6.194743     345.185441
                         15       1    1fxz2             6.194743     199.292907
                         15       1    1fy3              6.194743      89.126498
                         15       1    1fy2z             6.194743     199.292907
                         15       1    1fyz2             6.194743     199.292907
                         15       1    1fz3              6.194743      89.126498

                         16       1    1dx2              6.421170      42.631854
                         16       1    1dxy              6.421170      73.840537
                         16       1    1dxz              6.421170      73.840537
                         16       1    1dy2              6.421170      42.631854
                         16       1    1dyz              6.421170      73.840537
                         16       1    1dz2              6.421170      42.631854

                         17       1    1s               11.543896       4.463488

                         18       1    1px              13.925625      38.344976
                         18       1    1py              13.925625      38.344976
                         18       1    1pz              13.925625      38.344976

                         19       1    1dx2             18.713622     277.131374
                         19       1    1dxy             18.713622     480.005621
                         19       1    1dxz             18.713622     480.005621
                         19       1    1dy2             18.713622     277.131374
                         19       1    1dyz             18.713622     480.005621
                         19       1    1dz2             18.713622     277.131374

                         20       1    1s               32.901243       9.790826

                         21       1    1px              51.725836     197.730876
                         21       1    1py              51.725836     197.730876
                         21       1    1pz              51.725836     197.730876

                         22       1    1s               94.574981      21.614355

                         23       1    1s              422.926164      66.467372

       Atomic covalent radius [Angstrom]:                                  0.720

       Atomic van der Waals radius [Angstrom]:                             1.470

     The atoms of this atomic kind are PAW atoms (GAPW):
       Hard Gaussian function radius:                                      1.512
       Rho0 radius:                                                        1.512
       Maximum GTO radius used for PAW projector construction:            24.566

     GAPW Soft Basis Set                                            cc-pVTZ_soft

       Number of orbital shell sets:                                           4
       Number of orbital shells:                                              10
       Number of primitive Cartesian functions:                                9
       Number of Cartesian basis functions:                                   35
       Number of spherical basis functions:                                   30
       Norm type:                                                              2

       Normalised Cartesian orbitals:

                        Set   Shell   Orbital            Exponent    Coefficient

                          1       1    1px               2.930000       0.000000
                                                         0.913200       1.272470
                                                         0.267200       0.000000
                          1       1    1py               2.930000       0.000000
                                                         0.913200       1.272470
                                                         0.267200       0.000000
                          1       1    1pz               2.930000       0.000000
                                                         0.913200       1.272470
                                                         0.267200       0.000000

                          1       2    2px               2.930000       1.733564
                                                         0.913200       0.620129
                                                         0.267200       0.091626
                          1       2    2py               2.930000       1.733564
                                                         0.913200       0.620129
                                                         0.267200       0.091626
                          1       2    2pz               2.930000       1.733564
                                                         0.913200       0.620129
                                                         0.267200       0.091626

                          1       3    3px               2.930000       0.000000
                                                         0.913200       0.000000
                                                         0.267200       0.273833
                          1       3    3py               2.930000       0.000000
                                                         0.913200       0.000000
                                                         0.267200       0.273833
                          1       3    3pz               2.930000       0.000000
                                                         0.913200       0.000000
                                                         0.267200       0.273833

                          2       1    1s                2.257000       0.056738
                                                         0.881500      -0.005117
                                                         0.304100       0.000696

                          2       2    2s                2.257000       1.312377
                                                         0.881500       0.000000
                                                         0.304100       0.000000

                          2       3    3s                2.257000       0.225237
                                                         0.881500       0.392295
                                                         0.304100       0.107845

                          2       4    4s                2.257000       0.000000
                                                         0.881500       0.000000
                                                         0.304100       0.291859

                          3       1    1dx2              3.107000      11.967589
                                                         0.855000       0.000000
                          3       1    1dxy              3.107000      20.728471
                                                         0.855000       0.000000
                          3       1    1dxz              3.107000      20.728471
                                                         0.855000       0.000000
                          3       1    1dy2              3.107000      11.967589
                                                         0.855000       0.000000
                          3       1    1dyz              3.107000      20.728471
                                                         0.855000       0.000000
                          3       1    1dz2              3.107000      11.967589
                                                         0.855000       0.000000

                          3       2    2dx2              3.107000       0.000000
                                                         0.855000       1.251267
                          3       2    2dxy              3.107000       0.000000
                                                         0.855000       2.167259
                          3       2    2dxz              3.107000       0.000000
                                                         0.855000       2.167259
                          3       2    2dy2              3.107000       0.000000
                                                         0.855000       1.251267
                          3       2    2dyz              3.107000       0.000000
                                                         0.855000       2.167259
                          3       2    2dz2              3.107000       0.000000
                                                         0.855000       1.251267

                          4       1    1fx3              1.917000       6.365818
                          4       1    1fx2y             1.917000      14.234401
                          4       1    1fx2z             1.917000      14.234401
                          4       1    1fxy2             1.917000      14.234401
                          4       1    1fxyz             1.917000      24.654706
                          4       1    1fxz2             1.917000      14.234401
                          4       1    1fy3              1.917000       6.365818
                          4       1    1fy2z             1.917000      14.234401
                          4       1    1fyz2             1.917000      14.234401
                          4       1    1fz3              1.917000       6.365818

     AE Potential information for                                            ALL

       Description:                                       All-electron potential
                                          Krack, Parrinello, PCCP 2, 2105 (2000)

       Gaussian exponent of the core charge distribution:              10.470541
       Electronic configuration (s p d ...):                           4   5   0

  2. Atomic kind: O                                     Number of atoms:       2

     Orbital Basis Set                                                   cc-pVTZ

       Number of orbital shell sets:                                           4
       Number of orbital shells:                                              10
       Number of primitive Cartesian functions:                               18
       Number of Cartesian basis functions:                                   35
       Number of spherical basis functions:                                   30
       Norm type:                                                              2

       Normalised Cartesian orbitals:

                        Set   Shell   Orbital            Exponent    Coefficient

                          1       1    1px              34.460000       0.000000
                                                         7.749000       0.000000
                                                         2.280000       0.000000
                                                         0.715600       0.938162
                                                         0.214000       0.000000
                          1       1    1py              34.460000       0.000000
                                                         7.749000       0.000000
                                                         2.280000       0.000000
                                                         0.715600       0.938162
                                                         0.214000       0.000000
                          1       1    1pz              34.460000       0.000000
                                                         7.749000       0.000000
                                                         2.280000       0.000000
                                                         0.715600       0.938162
                                                         0.214000       0.000000

                          1       2    2px              34.460000       1.895593
                                                         7.749000       1.838088
                                                         2.280000       1.239963
                                                         0.715600       0.460662
                                                         0.214000       0.069780
                          1       2    2py              34.460000       1.895593
                                                         7.749000       1.838088
                                                         2.280000       1.239963
                                                         0.715600       0.460662
                                                         0.214000       0.069780
                          1       2    2pz              34.460000       1.895593
                                                         7.749000       1.838088
                                                         2.280000       1.239963
                                                         0.715600       0.460662
                                                         0.214000       0.069780

                          1       3    3px              34.460000       0.000000
                                                         7.749000       0.000000
                                                         2.280000       0.000000
                                                         0.715600       0.000000
                                                         0.214000       0.207471
                          1       3    3py              34.460000       0.000000
                                                         7.749000       0.000000
                                                         2.280000       0.000000
                                                         0.715600       0.000000
                                                         0.214000       0.207471
                          1       3    3pz              34.460000       0.000000
                                                         7.749000       0.000000
                                                         2.280000       0.000000
                                                         0.715600       0.000000
                                                         0.214000       0.207471

                          2       1    1s            15330.000000       0.498804
                                                      2299.000000       0.929707
                                                       522.400000       1.576475
                                                       147.300000       2.386068
                                                        47.550000       2.977116
                                                        16.760000       2.556946
                                                         6.207000       0.981661
                                                         1.752000       0.046374
                                                         0.688200      -0.004391
                                                         0.238400       0.000579

                          2       2    2s            15330.000000       0.000000
                                                      2299.000000       0.000000
                                                       522.400000       0.000000
                                                       147.300000       0.000000
                                                        47.550000       0.000000
                                                        16.760000       0.000000
                                                         6.207000       0.000000
                                                         1.752000       1.085327
                                                         0.688200       0.000000
                                                         0.238400       0.000000

                          2       3    3s            15330.000000      -0.112918
                                                      2299.000000      -0.211781
                                                       522.400000      -0.361041
                                                       147.300000      -0.564236
                                                        47.550000      -0.754491
                                                        16.760000      -0.805621
                                                         6.207000      -0.492541
                                                         1.752000       0.174666
                                                         0.688200       0.324949
                                                         0.238400       0.092100

                          2       4    4s            15330.000000       0.000000
                                                      2299.000000       0.000000
                                                       522.400000       0.000000
                                                       147.300000       0.000000
                                                        47.550000       0.000000
                                                        16.760000       0.000000
                                                         6.207000       0.000000
                                                         1.752000       0.000000
                                                         0.688200       0.000000
                                                         0.238400       0.243159

                          3       1    1dx2              2.314000       7.145709
                                                         0.645000       0.000000
                          3       1    1dxy              2.314000      12.376731
                                                         0.645000       0.000000
                          3       1    1dxz              2.314000      12.376731
                                                         0.645000       0.000000
                          3       1    1dy2              2.314000       7.145709
                                                         0.645000       0.000000
                          3       1    1dyz              2.314000      12.376731
                                                         0.645000       0.000000
                          3       1    1dz2              2.314000       7.145709
                                                         0.645000       0.000000

                          3       2    2dx2              2.314000       0.000000
                                                         0.645000       0.764080
                          3       2    2dxy              2.314000       0.000000
                                                         0.645000       1.323426
                          3       2    2dxz              2.314000       0.000000
                                                         0.645000       1.323426
                          3       2    2dy2              2.314000       0.000000
                                                         0.645000       0.764080
                          3       2    2dyz              2.314000       0.000000
                                                         0.645000       1.323426
                          3       2    2dz2              2.314000       0.000000
                                                         0.645000       0.764080

                          4       1    1fx3              1.428000       3.281655
                          4       1    1fx2y             1.428000       7.338004
                          4       1    1fx2z             1.428000       7.338004
                          4       1    1fxy2             1.428000       7.338004
                          4       1    1fxyz             1.428000      12.709795
                          4       1    1fxz2             1.428000       7.338004
                          4       1    1fy3              1.428000       3.281655
                          4       1    1fy2z             1.428000       7.338004
                          4       1    1fyz2             1.428000       7.338004
                          4       1    1fz3              1.428000       3.281655

     RI Auxiliary Basis Set                                        cc-pVTZ-RIFIT

       Number of orbital shell sets:                                          23
       Number of orbital shells:                                              23
       Number of primitive Cartesian functions:                               23
       Number of Cartesian basis functions:                                  101
       Number of spherical basis functions:                                   81
       Norm type:                                                              2

       Normalised Cartesian orbitals:

                        Set   Shell   Orbital            Exponent    Coefficient

                          1       1    1s                0.365053       0.334716

                          2       1    1dx2              0.503534       0.495404
                          2       1    1dxy              0.503534       0.858066
                          2       1    1dxz              0.503534       0.858066
                          2       1    1dy2              0.503534       0.495404
                          2       1    1dyz              0.503534       0.858066
                          2       1    1dz2              0.503534       0.495404

                          3       1    1px               0.518456       0.627090
                          3       1    1py               0.518456       0.627090
                          3       1    1pz               0.518456       0.627090

                          4       1    1s                0.812507       0.609930

                          5       1    1px               0.974192       1.379577
                          5       1    1py               0.974192       1.379577
                          5       1    1pz               0.974192       1.379577

                          6       1    1fx3              1.089407       1.784975
                          6       1    1fx2y             1.089407       3.991326
                          6       1    1fx2z             1.089407       3.991326
                          6       1    1fxy2             1.089407       3.991326
                          6       1    1fxyz             1.089407       6.913179
                          6       1    1fxz2             1.089407       3.991326
                          6       1    1fy3              1.089407       1.784975
                          6       1    1fy2z             1.089407       3.991326
                          6       1    1fyz2             1.089407       3.991326
                          6       1    1fz3              1.089407       1.784975

                          7       1    1dx2              1.162446       2.141962
                          7       1    1dxy              1.162446       3.709987
                          7       1    1dxz              1.162446       3.709987
                          7       1    1dy2              1.162446       2.141962
                          7       1    1dyz              1.162446       3.709987
                          7       1    1dz2              1.162446       2.141962

                          8       1    1s                1.333156       0.884242

                          9       1    1fx3              2.151279       8.251294
                          9       1    1fx2y             2.151279      18.450455
                          9       1    1fx2z             2.151279      18.450455
                          9       1    1fxy2             2.151279      18.450455
                          9       1    1fxyz             2.151279      31.957126
                          9       1    1fxz2             2.151279      18.450455
                          9       1    1fy3              2.151279       8.251294
                          9       1    1fy2z             2.151279      18.450455
                          9       1    1fyz2             2.151279      18.450455
                          9       1    1fz3              2.151279       8.251294

                         10       1    1px               2.167884       3.749602
                         10       1    1py               2.167884       3.749602
                         10       1    1pz               2.167884       3.749602

                         11       1    1gx4              2.327096      11.354683
                         11       1    1gx3y             2.327096      30.041666
                         11       1    1gx3z             2.327096      30.041666
                         11       1    1gx2y2            2.327096      38.783625
                         11       1    1gx2yz            2.327096      67.175208
                         11       1    1gx2z2            2.327096      38.783625
                         11       1    1gxy3             2.327096      30.041666
                         11       1    1gxy2z            2.327096      67.175208
                         11       1    1gxyz2            2.327096      67.175208
                         11       1    1gxz3             2.327096      30.041666
                         11       1    1gy4              2.327096      11.354683
                         11       1    1gy3z             2.327096      30.041666
                         11       1    1gy2z2            2.327096      38.783625
                         11       1    1gyz3             2.327096      30.041666
                         11       1    1gz4              2.327096      11.354683

                         12       1    1dx2              2.955262      10.963584
                         12       1    1dxy              2.955262      18.989484
                         12       1    1dxz              2.955262      18.989484
                         12       1    1dy2              2.955262      10.963584
                         12       1    1dyz              2.955262      18.989484
                         12       1    1dz2              2.955262      10.963584

                         13       1    1s                3.020208       1.632818

                         14       1    1px               3.913772       7.846654
                         14       1    1py               3.913772       7.846654
                         14       1    1pz               3.913772       7.846654

                         15       1    1fx3              4.687385      47.593571
                         15       1    1fx2y             4.687385     106.422459
                         15       1    1fx2z             4.687385     106.422459
                         15       1    1fxy2             4.687385     106.422459
                         15       1    1fxyz             4.687385     184.329107
                         15       1    1fxz2             4.687385     106.422459
                         15       1    1fy3              4.687385      47.593571
                         15       1    1fy2z             4.687385     106.422459
                         15       1    1fyz2             4.687385     106.422459
                         15       1    1fz3              4.687385      47.593571

                         16       1    1dx2              5.379933      31.280160
                         16       1    1dxy              5.379933      54.178826
                         16       1    1dxz              5.379933      54.178826
                         16       1    1dy2              5.379933      31.280160
                         16       1    1dyz              5.379933      54.178826
                         16       1    1dz2              5.379933      31.280160

                         17       1    1s                8.416559       3.521770

                         18       1    1px              15.021796      42.154351
                         18       1    1py              15.021796      42.154351
                         18       1    1pz              15.021796      42.154351

                         19       1    1dx2             15.907733     208.556618
                         19       1    1dxy             15.907733     361.230658
                         19       1    1dxz             15.907733     361.230658
                         19       1    1dy2             15.907733     208.556618
                         19       1    1dyz             15.907733     361.230658
                         19       1    1dz2             15.907733     208.556618

                         20       1    1s               24.573835       7.866197

                         21       1    1px              52.854386     203.138098
                         21       1    1py              52.854386     203.138098
                         21       1    1pz              52.854386     203.138098

                         22       1    1s               76.693315      18.470482

                         23       1    1s              366.545315      59.704332

       Atomic covalent radius [Angstrom]:                                  0.730

       Atomic van der Waals radius [Angstrom]:                             1.520

     The atoms of this atomic kind are PAW atoms (GAPW):
       Hard Gaussian function radius:                                      1.512
       Rho0 radius:                                                        1.512
       Maximum GTO radius used for PAW projector construction:            24.566

     GAPW Soft Basis Set                                            cc-pVTZ_soft

       Number of orbital shell sets:                                           4
       Number of orbital shells:                                              10
       Number of primitive Cartesian functions:                                9
       Number of Cartesian basis functions:                                   35
       Number of spherical basis functions:                                   30
       Norm type:                                                              2

       Normalised Cartesian orbitals:

                        Set   Shell   Orbital            Exponent    Coefficient

                          1       1    1px               2.280000       0.000000
                                                         0.715600       0.938162
                                                         0.214000       0.000000
                          1       1    1py               2.280000       0.000000
                                                         0.715600       0.938162
                                                         0.214000       0.000000
                          1       1    1pz               2.280000       0.000000
                                                         0.715600       0.938162
                                                         0.214000       0.000000

                          1       2    2px               2.280000       1.239963
                                                         0.715600       0.460662
                                                         0.214000       0.069780
                          1       2    2py               2.280000       1.239963
                                                         0.715600       0.460662
                                                         0.214000       0.069780
                          1       2    2pz               2.280000       1.239963
                                                         0.715600       0.460662
                                                         0.214000       0.069780

                          1       3    3px               2.280000       0.000000
                                                         0.715600       0.000000
                                                         0.214000       0.207471
                          1       3    3py               2.280000       0.000000
                                                         0.715600       0.000000
                                                         0.214000       0.207471
                          1       3    3pz               2.280000       0.000000
                                                         0.715600       0.000000
                                                         0.214000       0.207471

                          2       1    1s                1.752000       0.046374
                                                         0.688200      -0.004391
                                                         0.238400       0.000579

                          2       2    2s                1.752000       1.085327
                                                         0.688200       0.000000
                                                         0.238400       0.000000

                          2       3    3s                1.752000       0.174666
                                                         0.688200       0.324949
                                                         0.238400       0.092100

                          2       4    4s                1.752000       0.000000
                                                         0.688200       0.000000
                                                         0.238400       0.243159

                          3       1    1dx2              2.314000       7.145709
                                                         0.645000       0.000000
                          3       1    1dxy              2.314000      12.376731
                                                         0.645000       0.000000
                          3       1    1dxz              2.314000      12.376731
                                                         0.645000       0.000000
                          3       1    1dy2              2.314000       7.145709
                                                         0.645000       0.000000
                          3       1    1dyz              2.314000      12.376731
                                                         0.645000       0.000000
                          3       1    1dz2              2.314000       7.145709
                                                         0.645000       0.000000

                          3       2    2dx2              2.314000       0.000000
                                                         0.645000       0.764080
                          3       2    2dxy              2.314000       0.000000
                                                         0.645000       1.323426
                          3       2    2dxz              2.314000       0.000000
                                                         0.645000       1.323426
                          3       2    2dy2              2.314000       0.000000
                                                         0.645000       0.764080
                          3       2    2dyz              2.314000       0.000000
                                                         0.645000       1.323426
                          3       2    2dz2              2.314000       0.000000
                                                         0.645000       0.764080

                          4       1    1fx3              1.428000       3.281655
                          4       1    1fx2y             1.428000       7.338004
                          4       1    1fx2z             1.428000       7.338004
                          4       1    1fxy2             1.428000       7.338004
                          4       1    1fxyz             1.428000      12.709795
                          4       1    1fxz2             1.428000       7.338004
                          4       1    1fy3              1.428000       3.281655
                          4       1    1fy2z             1.428000       7.338004
                          4       1    1fyz2             1.428000       7.338004
                          4       1    1fz3              1.428000       3.281655

     AE Potential information for                                            ALL

       Description:                                       All-electron potential
                                          Krack, Parrinello, PCCP 2, 2105 (2000)

       Gaussian exponent of the core charge distribution:               8.154466
       Electronic configuration (s p d ...):                           4   4   0


 MOLECULE KIND INFORMATION


 All atoms are their own molecule, skipping detailed information


 TOTAL NUMBERS AND MAXIMUM NUMBERS

  Total number of            - Atomic kinds:                                   2
                             - Atoms:                                          4
                             - Shell sets:                                    16
                             - Shells:                                        40
                             - Primitive Cartesian functions:                 72
                             - Cartesian basis functions:                    140
                             - Spherical basis functions:                    120

  Maximum angular momentum of the orbital basis functions:                     3


 MODULE QUICKSTEP: ATOMIC COORDINATES IN ANGSTROM

   Atom Kind Element         X             Y             Z       Z(eff)     Mass
      1    1 F     9     13.511887     14.475140     15.104832   9.0000  18.9984
      2    2 O     8     14.516020     15.524860     14.617249   8.0000  15.9994
      3    2 O     8     15.483980     15.524860     15.382751   8.0000  15.9994
      4    1 F     9     16.488113     14.475140     14.895168   9.0000  18.9984



 SCF PARAMETERS         Density guess:                                   RESTART
                        --------------------------------------------------------
                        max_scf:                                             500
                        max_scf_history:                                       0
                        max_diis:                                              4
                        --------------------------------------------------------
                        eps_scf:                                        1.00E-06
                        eps_scf_history:                                0.00E+00
                        eps_diis:                                       1.00E-01
                        eps_eigval:                                     1.00E-05
                        --------------------------------------------------------
                        level_shift [a.u.]:                             0.000000
                        --------------------------------------------------------
                        Outer loop SCF in use 
                        No variables optimised in outer loop
                        eps_scf                                         1.00E-06
                        max_scf                                               20
                        No outer loop optimization
                        step_size                                       5.00E-01

 PW_GRID| Information for grid number                                          1
 PW_GRID| Grid distributed over                                    96 processors
 PW_GRID| Real space group dimensions                                    96    1
 PW_GRID| the grid is blocked:                                                NO
 PW_GRID| Cutoff [a.u.]                                                    250.0
 PW_GRID| spherical cutoff:                                                   NO
 PW_GRID|   Bounds   1           -202     202                Points:         405
 PW_GRID|   Bounds   2           -202     202                Points:         405
 PW_GRID|   Bounds   3           -202     202                Points:         405
 PW_GRID| Volume element (a.u.^3)  0.2743E-02     Volume (a.u.^3)    182205.0337
 PW_GRID| Grid span                                                    FULLSPACE
 PW_GRID|   Distribution                         Average         Max         Min
 PW_GRID|   G-Vectors                           691980.5      692145      691740
 PW_GRID|   G-Rays                                1708.6        1709        1708
 PW_GRID|   Real Space Points                   691980.5      820125      656100

 PW_GRID| Information for grid number                                          2
 PW_GRID| Number of the reference grid                                         1
 PW_GRID| Grid distributed over                                    96 processors
 PW_GRID| Real space group dimensions                                    96    1
 PW_GRID| the grid is blocked:                                                NO
 PW_GRID| Cutoff [a.u.]                                                     83.3
 PW_GRID| spherical cutoff:                                                   NO
 PW_GRID|   Bounds   1           -120     119                Points:         240
 PW_GRID|   Bounds   2           -120     119                Points:         240
 PW_GRID|   Bounds   3           -120     119                Points:         240
 PW_GRID| Volume element (a.u.^3)  0.1318E-01     Volume (a.u.^3)    182205.0337
 PW_GRID| Grid span                                                    FULLSPACE
 PW_GRID|   Distribution                         Average         Max         Min
 PW_GRID|   G-Vectors                           144000.0      144480      143760
 PW_GRID|   G-Rays                                 600.0         602         599
 PW_GRID|   Real Space Points                   144000.0      172800      115200

 PW_GRID| Information for grid number                                          3
 PW_GRID| Number of the reference grid                                         1
 PW_GRID| Grid distributed over                                    96 processors
 PW_GRID| Real space group dimensions                                    96    1
 PW_GRID| the grid is blocked:                                                NO
 PW_GRID| Cutoff [a.u.]                                                     27.8
 PW_GRID| spherical cutoff:                                                   NO
 PW_GRID|   Bounds   1            -67      67                Points:         135
 PW_GRID|   Bounds   2            -67      67                Points:         135
 PW_GRID|   Bounds   3            -67      67                Points:         135
 PW_GRID| Volume element (a.u.^3)  0.7406E-01     Volume (a.u.^3)    182205.0337
 PW_GRID| Grid span                                                    FULLSPACE
 PW_GRID|   Distribution                         Average         Max         Min
 PW_GRID|   G-Vectors                            25628.9       25785       25515
 PW_GRID|   G-Rays                                 189.8         191         189
 PW_GRID|   Real Space Points                    25628.9       36450       18225

 PW_GRID| Information for grid number                                          4
 PW_GRID| Number of the reference grid                                         1
 PW_GRID| Grid distributed over                                    96 processors
 PW_GRID| Real space group dimensions                                     8   12
 PW_GRID| the grid is blocked:                                                NO
 PW_GRID| Cutoff [a.u.]                                                      9.3
 PW_GRID| spherical cutoff:                                                   NO
 PW_GRID|   Bounds   1            -40      39                Points:          80
 PW_GRID|   Bounds   2            -40      39                Points:          80
 PW_GRID|   Bounds   3            -40      39                Points:          80
 PW_GRID| Volume element (a.u.^3)  0.3559         Volume (a.u.^3)    182205.0337
 PW_GRID| Grid span                                                    FULLSPACE
 PW_GRID|   Distribution                         Average         Max         Min
 PW_GRID|   G-Vectors                             5333.3        5520        5200
 PW_GRID|   G-Rays                                  66.7          69          65
 PW_GRID|   Real Space Points                     5333.3        5600        4800

 POISSON| Solver                                                         WAVELET
 POISSON| Wavelet| Scaling function                                           40
 POISSON| Periodicity                                                       NONE

 RS_GRID| Information for grid number                                          1
 RS_GRID|   Bounds   1           -202     202                Points:         405
 RS_GRID|   Bounds   2           -202     202                Points:         405
 RS_GRID|   Bounds   3           -202     202                Points:         405
 RS_GRID| Real space distribution over                                  4 groups
 RS_GRID| Real space distribution along direction                              1
 RS_GRID| Border size                                                         35
 RS_GRID| Real space distribution over                                  4 groups
 RS_GRID| Real space distribution along direction                              2
 RS_GRID| Border size                                                         35
 RS_GRID| Real space distribution over                                  6 groups
 RS_GRID| Real space distribution along direction                              3
 RS_GRID| Border size                                                         35
 RS_GRID|   Distribution                         Average         Max         Min
 RS_GRID|   Planes                                 171.2         172         171
 RS_GRID|   Distribution                         Average         Max         Min
 RS_GRID|   Planes                                 171.2         172         171
 RS_GRID|   Distribution                         Average         Max         Min
 RS_GRID|   Planes                                 137.5         138         137

 RS_GRID| Information for grid number                                          2
 RS_GRID|   Bounds   1           -120     119                Points:         240
 RS_GRID|   Bounds   2           -120     119                Points:         240
 RS_GRID|   Bounds   3           -120     119                Points:         240
 RS_GRID| Real space distribution over                                  4 groups
 RS_GRID| Real space distribution along direction                              1
 RS_GRID| Border size                                                         34
 RS_GRID| Real space distribution over                                  4 groups
 RS_GRID| Real space distribution along direction                              2
 RS_GRID| Border size                                                         34
 RS_GRID| Real space distribution over                                  6 groups
 RS_GRID| Real space distribution along direction                              3
 RS_GRID| Border size                                                         34
 RS_GRID|   Distribution                         Average         Max         Min
 RS_GRID|   Planes                                 128.0         128         128
 RS_GRID|   Distribution                         Average         Max         Min
 RS_GRID|   Planes                                 128.0         128         128
 RS_GRID|   Distribution                         Average         Max         Min
[...]
 tddfpt_compute_Aop_evects            7  7.0    0.000    0.000  217.130  217.130
 fft_wrap_pw1pw2                   6573 10.5    0.130    0.180  202.051  207.105
 fhxc_kernel                          7  8.0    0.007    0.008  200.947  200.948
 fft_wrap_pw1pw2_250               4653 11.8    8.055    9.741  194.364  198.975
 pw_poisson_solve                   408  8.7    5.661    6.914  196.476  196.829
 fft3d_ps                          6573 12.5   71.722   89.573  167.139  173.324
 ps_wavelet_solve                   408  9.7   91.716  105.262  118.095  119.632
 qs_rho_update_rho_low              410  6.4    0.004    0.005  100.658  100.663
 calculate_rho_elec                 410  7.4    1.994    2.366  100.183  100.189
 mp_alltoall_d54                    408 10.7   15.210   90.839   15.210   90.839
 mp_alltoall_z22v                  6573 14.5   81.097   87.285   81.097   87.285
 xc_pw_derive                      1917 11.0    0.022    0.028   86.006   86.373
 tddfpt_apply_coulomb               140  9.0    0.003    0.004   82.884   83.226
 density_rs2pw                      410  8.4    0.025    0.031   67.991   69.921
 qs_vxc_create                      268  8.0    0.003    0.003   57.972   57.975
 x_to_yz                           2965 13.8    8.698   10.074   48.904   50.488
 yz_to_x                           2968 13.4    4.833    5.893   45.675   49.957
 tddfpt_apply_xc_analytic           140  9.0    0.198    0.264   47.423   48.109
 xc_pw_divergence                   230 10.6    0.010    0.012   42.621   43.076
 transfer_rs2pw                    2050  9.6    0.054    0.079   40.522   41.795
 xc_rho_set_and_dset_create         269 10.0    0.656    0.811   37.708   40.265
 prepare_gapw_den                   409  8.3    0.006    0.007   37.950   38.376
 integrate_v_rspace                 230  9.0    0.005    0.006   35.452   35.742
 mp_alltoall_d11v                 15364 11.9   24.173   34.545   24.173   34.545
 put_rho0_on_grid                   409  9.3    2.021    2.446   33.829   34.255
 transfer_pw2rs                    1329 10.6    0.020    0.024   32.260   32.609
 potential_pw2rs                    230 10.0    0.079    0.087   32.237   32.570
 grid_collocate_task_list           410  8.4   28.490   31.042   28.490   31.042
 xc_vxc_pw_create                    90  9.0    0.592    0.702   30.747   30.749
 integrate_four_center              548  9.5   11.518   23.966   30.204   30.466
 mp_waitany                       62970 12.0   25.841   29.653   25.841   29.653
 xc_calc_2nd_deriv_analytical       700 10.1    1.676    1.755   28.320   28.415
 xc_exc_calc                        178  9.0    0.863    1.025   27.222   27.224
 transfer_rs2pw_250                 820 10.9   10.460   11.246   24.247   25.584
 mp_sync                           3064 11.4   13.126   24.946   13.126   24.946
 transfer_pw2rs_250                 639 11.2    7.891    8.412   21.408   21.783
 integrate_vhg0_rspace              408  8.7    0.229    0.292   19.730   19.892
 mp_alltoall_d45                    409 10.7   10.243   17.993   10.243   17.993
 hfx_ks_matrix                      268  8.0    0.009    0.011   16.545   16.790
 tddfpt_apply_hfx                     7  8.0    0.003    0.003   15.566   15.566
 tddft_hfx_matrix                   280  9.0    0.007    0.009   13.679   13.754
 sum_up_and_integrate                90  8.0    0.001    0.001   13.395   13.428
 mp_sum_d                          8598 10.0   10.165   12.219   10.165   12.219
 pw_scatter_p                      3195 12.8   11.404   11.674   11.404   11.674
 cp2k_distribution_to_z_slices      408  9.7    3.919    4.279    9.732   10.347
 pw_gather_p                       3378 12.3    9.273   10.166    9.273   10.166
 pw_derive                         3141 11.5    9.279   10.005    9.279   10.005
 transfer_rs2pw_30                  410 10.4    3.875    4.087    9.072    9.219
 mp_waitall_1                    578422 13.5    6.441    8.530    6.441    8.530
 qs_scf_new_mos                     268  5.0    0.001    0.002    7.668    7.680
 qs_scf_loop_do_ot                  268  6.0    0.001    0.002    7.667    7.679
 fft_wrap_pw1pw2_90                 640 11.0    0.222    0.332    5.796    7.362
 dbcsr_multiply_generic            4396  9.9    0.177    0.191    7.123    7.187
 ot_scf_mini                        268  7.0    0.004    0.004    7.173    7.186
 transfer_pw2rs_30                  230 12.0    3.917    4.542    6.521    6.865
 pw_copy                           4955 10.7    6.312    6.706    6.312    6.706
 mp_sendrecv_dv                   77900 11.4    6.365    6.570    6.365    6.570
 pw_poisson_set                     409  9.7    0.014    0.017    6.323    6.429
 rs_grid_zero                      1687 11.2    6.147    6.391    6.147    6.391
 transfer_rs2pw_90                  410 10.4    1.323    1.474    5.268    5.707
 init_scf_loop                        1  4.0    0.000    0.000    5.464    5.464
 gaVxcgb_GC                         460  9.6    0.113    5.432    0.113    5.432
 calculate_xc_2nd_deriv_atom        140  9.0    0.049    1.513    0.139    5.105
 pw_copy_to_array                  3378 12.3    3.536    4.420    3.536    4.420
 cp_dbcsr_sm_fm_multiply            889  8.5    0.017    0.018    4.112    4.190
 pw_integral_ab_c1d_c1d_gs          408  9.7    2.984    3.015    3.537    4.057
 calculate_rho_atom                 818  9.3    1.663    3.950    1.663    3.950
 calculate_vxc_atom                 268  8.0    0.102    1.473    3.912    3.913
 multiply_cannon                   4396 10.9    0.396    0.406    3.604    3.765
 qs_ot_get_p                        269  8.0    0.002    0.002    3.667    3.673
 transfer_pw2rs_90                  230 12.0    0.808    0.962    3.122    3.555
 pw_axpy                           3338  9.9    3.091    3.358    3.091    3.358
 integrate_four_center_main         548 10.5    0.087    0.769    0.504    3.237
 rs_gather_matrices                 230 10.0    0.003    0.011    2.972    3.236
 dbcsr_complete_redistribute       3347 10.8    0.119    0.161    3.091    3.170
 integrate_four_center_bin        45909 11.5    0.417    3.117    0.417    3.117
 grid_integrate_task_list           230 10.0    0.236    3.095    0.236    3.095
 qs_ot_p2m_diag                     268  9.0    0.006    0.013    2.804    2.816
 multiply_cannon_loop              4396 11.9    0.658    0.690    2.625    2.777
 pw_copy_from_array                3195 12.8    2.241    2.763    2.241    2.763
 mp_sum_dv                        23225 11.0    2.656    2.738    2.656    2.738
 xc_functional_eval                1901 10.9    0.002    0.008    0.917    2.729
 pbe_lda_eval                      1901 11.9    0.915    2.728    0.915    2.728
 mp_isend_dv                     244526 13.5    1.658    2.677    1.658    2.677
 mp_isendrecv_dv                 147820 12.0    1.367    2.651    1.367    2.651
 mp_sum_dm                         4943  8.8    2.219    2.605    2.219    2.605
 pw_zero                           3256 10.5    2.319    2.532    2.319    2.532
 copy_dbcsr_to_fm                  1199  9.8    0.015    0.016    2.284    2.305
 mp_irecv_dm3                     12594 12.0    1.096    2.175    1.096    2.175
 ot_mini                            268  8.0    0.001    0.001    2.157    2.170
 make_m2s                          8792 10.9    0.144    0.160    2.034    2.139
 qs_ot_get_derivative                90  9.0    0.001    0.001    1.980    1.983
 transfer_rs2pw_10                  410 10.4    0.713    0.748    1.882    1.951
 copy_fm_to_dbcsr                  2146  9.8    0.009    0.010    1.846    1.923
 mp_max_i                           862  5.9    1.513    1.910    1.513    1.910
 cp_dbcsr_syevd                     268 10.0    0.014    0.015    1.894    1.897
 mp_isend_dm3                     12594 12.0    1.077    1.892    1.077    1.892
 calc_screening_functions             1 10.0    0.972    1.017    1.585    1.635
 make_images                       8792 11.9    0.344    0.355    1.500    1.560
 cp_fm_syevd                        317 10.5    0.002    0.002    1.538    1.544
 qs_ot_get_derivative_diag           89 10.0    0.002    0.002    1.526    1.529
 integrate_four_center_dist_KS      548 10.5    0.089    0.102    1.468    1.473
 integrate_four_center_getP         548 10.5    0.089    0.099    1.438    1.466
 fft_wrap_pw1pw2_30                 640 11.0    0.040    0.048    1.243    1.397
 mp_alltoall_i11v                 11508 11.8    1.369    1.370    1.369    1.370
 transfer_pw2rs_10                  230 12.0    0.420    0.468    1.189    1.358
 cp_dbcsr_sm_fm_multiply_core       889  9.5    0.002    0.002    1.268    1.302
 Vh_1c_gg_integrals                 408  8.7    0.042    0.659    1.052    1.257
 create_qs_kind_set                   1  2.0    0.000    0.000    1.252    1.253
 read_qs_kind                         2  3.0    0.662    0.714    1.252    1.253
 cp_fm_redistribute_end             317 11.5    0.702    1.224    0.711    1.235
 offload_free_buffer                416  9.6    1.022    1.227    1.022    1.227
 powell_optimize                 470379 11.0    1.168    1.207    1.168    1.207
 scale_and_distribute               816 10.7    1.025    1.150    1.025    1.150
 cp_fm_syevd_base                   317 11.5    0.517    1.037    0.517    1.037
 tddfpt_orthonormalize_psi1_psi       8  6.9    0.014    0.016    1.005    1.005
 dbcsr_desymmetrize_deep           1200 10.8    0.022    0.025    0.901    0.920
 qs_ot_get_orbitals                 268  8.0    0.001    0.001    0.915    0.920
 calc_pair_dist_radii                 1 10.0    0.254    0.264    0.810    0.855
 mp_sum_l                         19909 10.7    0.788    0.839    0.788    0.839
 pw_poisson_rebuild                 408  9.7    0.000    0.001    0.778    0.791
 ps_wavelet_create                    1 10.0    0.000    0.000    0.777    0.791
 RS_z_slice_distribution              1 11.0    0.679    0.732    0.777    0.791
 cp_dbcsr_plus_fm_fm_t              141  9.0    0.002    0.002    0.710    0.717
 tddfpt_print_nto_analysis            1  6.0    0.002    0.003    0.693    0.693
 make_images_sizes                 8792 12.9    0.009    0.010    0.613    0.649
 mp_alltoall_i44                   8792 13.9    0.604    0.640    0.604    0.640
 tddfpt_apply_energy_diff             7  8.0    0.001    0.001    0.616    0.616
 multiply_cannon_metrocomm4       96712 12.9    0.286    0.307    0.558    0.600
 parser_read_line                140095  4.0    0.049    0.055    0.590    0.600
 prepare_dr1dr                      700 11.1    0.498    0.581    0.498    0.581
 multiply_cannon_metrocomm3      105504 12.9    0.166    0.174    0.452    0.563
 parser_read_line_low               152  5.0    0.049    0.228    0.541    0.551
 multiply_cannon_metrocomm2       92316 12.9    0.274    0.295    0.504    0.551
 fft_wrap_pw1pw2_10                 640 11.0    0.010    0.011    0.518    0.545
 hybrid_alltoall_any               9992 13.6    0.077    0.095    0.497    0.534
 mp_alltoall_i22                   4636 11.8    0.416    0.522    0.416    0.522
 tddfpt_compute_residual_vects        6  7.0    0.001    0.001    0.518    0.518
 broadcast_input_information        152  6.0    0.116    0.126    0.493    0.505
 calculate_dm_sparse                269  7.0    0.001    0.001    0.495    0.504
 calculate_rho_atom_coeff           410  7.4    0.039    0.111    0.470    0.475
 update_ks_atom                     408  8.3    0.028    0.073    0.280    0.424
 mp_rank_compare                   6573 13.5    0.394    0.422    0.394    0.422
 mp_bcast_dm                       3535  9.5    0.259    0.407    0.259    0.407
 dbcsr_make_images_dense           6288 11.9    0.095    0.102    0.282    0.402
 arnoldi_extremal                   269  9.0    0.004    0.005    0.393    0.399
 arnoldi_normal_ev                  270 10.0    0.005    0.005    0.391    0.398
 cp_fm_geeig                         20  7.0    0.001    0.001    0.377    0.378
 multiply_cannon_metrocomm1      105504 12.9    0.116    0.121    0.301    0.377
 parallel_gemm_fm                  1196  8.3    0.001    0.002    0.358    0.370
 parallel_gemm_fm_gemm             1196  9.3    0.002    0.002    0.357    0.368
 cp_fm_gemm                        1196 10.3    0.355    0.367    0.355    0.367
 dbcsr_create_new                 90527 12.4    0.253    0.262    0.342    0.353
 mp_allgather_i34                  4396 11.9    0.320    0.352    0.320    0.352
 mp_alltoall_z11v                   640 14.0    0.323    0.351    0.323    0.351
 tddfpt_construct_ground_state_       1  6.0    0.000    0.000    0.336    0.337
 init_scf_run                         1  3.0    0.000    0.000    0.330    0.330
 scf_env_initial_rho_setup            1  4.0    0.000    0.000    0.330    0.330
 dbcsr_finalize                   10668 11.3    0.051    0.069    0.241    0.319
 cp_fm_redistribute_start           317 11.5    0.241    0.249    0.308    0.315
 qs_init_subsys                       1  2.0    0.004    0.004    0.309    0.310
 build_subspace                     270 11.0    0.012    0.014    0.300    0.303
 pw_scale                           640  9.5    0.247    0.297    0.247    0.297
 qs_env_setup                         1  3.0    0.000    0.000    0.295    0.297
 qs_env_rebuild_pw_env                2  3.5    0.000    0.000    0.294    0.296
 pw_env_rebuild                       1  5.0    0.001    0.001    0.294    0.295
 dbcsr_make_dense_low             18313 12.8    0.090    0.093    0.138    0.292
 vxc_of_r_new                      1072  9.0    0.000    0.023    0.006    0.288
 make_images_data                  8792 12.9    0.084    0.113    0.187    0.288
 pw_grid_setup                        4  6.0    0.000    0.000    0.273    0.275
 pw_grid_setup_internal               4  7.0    0.006    0.009    0.273    0.275
 cp_fm_trace_a1b1t1_aa            10080  8.0    0.047    0.050    0.268    0.271
 mp_cart_sub                       2401 11.8    0.264    0.266    0.264    0.266
 xc_2nd_deriv_of_r                  560 10.0    0.001    0.044    0.005    0.252
 mp_bcast_i_src                     608  7.0    0.188    0.246    0.188    0.246
 mp_irecv_dv                     243351 13.5    0.188    0.236    0.188    0.236
 multiply_cannon_multrec         105504 12.9    0.134    0.213    0.152    0.232
 create_kernel_env                    1  6.0    0.000    0.000    0.214    0.227
 xc_prep_2nd_deriv                    1  7.0    0.000    0.000    0.214    0.227
 mp_bcast_am_src                    152  7.0    0.136    0.160    0.186    0.222
 dbcsr_special_finalize           21980 12.9    0.055    0.057    0.176    0.221
 dbcsr_matrix_vector_mult          2723 12.0    0.025    0.026    0.133    0.220
 xz_to_yz                           410 12.4    0.015    0.017    0.200    0.210
 rs_scatter_matrices                410  8.4    0.003    0.007    0.196    0.201
 mp_cart_create                    2020 10.8    0.185    0.196    0.188    0.198
 pw_grid_sort                         4  8.0    0.107    0.133    0.156    0.188
 dbcsr_merge_all                   9338 12.3    0.108    0.137    0.135    0.179
 yz_to_xz                           230 14.0    0.013    0.014    0.150    0.170
 dbcsr_iterator_start             75464 12.5    0.076    0.140    0.093    0.170
 mp_isend_iv                     207502 13.9    0.157    0.168    0.157    0.168
 ot_new_cg_direction                 90  9.0    0.001    0.001    0.165    0.166
 qs_energies_init_hamiltonians        1  3.0    0.000    0.000    0.153    0.153
 dbcsr_destroy                    87909 11.5    0.107    0.110    0.145    0.153
 make_dense_data                  18313 13.8    0.007    0.065    0.009    0.150
 apply_preconditioner_dbcsr          91 10.0    0.000    0.000    0.146    0.150
 apply_single                        91 11.0    0.000    0.000    0.145    0.150
 build_core_hamiltonian_matrix        1  4.0    0.000    0.000    0.147    0.147
 calculate_rho0_atom                818  9.3    0.144    0.145    0.144    0.145
 overlap_condnum                      1  5.0    0.000    0.000    0.144    0.145
 dbcsr_data_new                  245086 13.0    0.102    0.136    0.102    0.136
 rs_grid_create                     414  9.6    0.002    0.003    0.030    0.133
 mp_sum_b                          6289 10.9    0.129    0.132    0.129    0.132
 offload_create_buffer              416 10.6    0.028    0.131    0.028    0.131
 dbcsr_data_release              414086 13.2    0.106    0.124    0.106    0.124
 dbcsr_col_vec_to_rep_row          3316 12.3    0.023    0.025    0.056    0.112
 arnoldi_conjugate_gradient           5  6.0    0.003    0.004    0.111    0.111
 dbcsr_iterator_stop              75464 12.5    0.056    0.093    0.069    0.110
 dbcsr_new_transposed              1981 10.8    0.011    0.012    0.106    0.110
 setup_buffer_matrices             8792 11.9    0.032    0.034    0.101    0.104
 dbcsr_work_create                32607 12.5    0.058    0.065    0.083    0.102
 dbcsr_make_dense                  2593 11.1    0.011    0.011    0.055    0.101
 mp_irecv_iv                     208392 13.9    0.091    0.098    0.091    0.098
 Gram_Schmidt_ortho                2546 11.9    0.003    0.005    0.078    0.097
 dbcsr_add_d                       1416  8.8    0.002    0.003    0.013    0.093
 dbcsr_sym_matrix_vector_mult       593  7.9    0.009    0.010    0.070    0.092
 dbcsr_add_anytype                 1416  9.8    0.003    0.014    0.011    0.091
 integrate_four_center_load         548 10.5    0.001    0.002    0.063    0.090
 hfx_load_balance                     1 11.0    0.000    0.000    0.062    0.089
 dbcsr_work_destroy_all           32607 13.4    0.054    0.060    0.071    0.083
 hfx_load_balance_range               1 12.0    0.000    0.000    0.055    0.082
 dbcsr_merge_single_wm             9015 13.6    0.043    0.053    0.051    0.081
 mp_bcast_iv                        160  7.7    0.050    0.079    0.050    0.079
 scf_post_calculation_gpw             1  3.0    0.000    0.000    0.076    0.076
 write_available_results              1  4.0    0.000    0.000    0.076    0.076
 write_mo_free_results                1  5.0    0.006    0.008    0.075    0.076
 tddfpt_compute_ritz_vects            7  7.0    0.004    0.005    0.075    0.075
 dbcsr_make_undense                2593 11.1    0.017    0.033    0.033    0.074
 dbcsr_redistribute                  89 12.0    0.002    0.003    0.073    0.074
 copy_fm_to_dbcsr_bc               2146 10.8    0.023    0.025    0.066    0.073
 dbcsr_mm_multrec_init             4396 11.9    0.008    0.010    0.060    0.067
 xc_pw_smooth                        90 10.0    0.000    0.000    0.047    0.066
 quick_finalize                   14254 14.0    0.030    0.038    0.050    0.065
 dbcsr_copy                        8175  9.8    0.027    0.028    0.059    0.064
 tddfpt_orthogonalize_psi1_psi0       8  6.9    0.000    0.000    0.053    0.061
 arnoldi_init                       270 11.0    0.003    0.004    0.054    0.060
 dbcsr_mm_csr_init                 4396 12.9    0.042    0.046    0.052    0.057
 mp_cart_rank                    156780 10.2    0.047    0.056    0.047    0.056
 -------------------------------------------------------------------------------

 The number of warnings for this run is : 2
 
 -------------------------------------------------------------------------------
  **** **** ******  **  PROGRAM ENDED AT                 2025-04-28 09:22:52.777
 ***** ** ***  *** **   PROGRAM RAN ON                              i04r01c01s01
 **    ****   ******    PROGRAM RAN BY                                   di38fab
 ***** **    ** ** **   PROGRAM PROCESS ID                               1786391
  **** **  *******  **  PROGRAM STOPPED IN /hppfs/scratch/04/di38fab/07_MOL_non_
                                           aug/05_MOL_non_aug/05_MOL/W4-11+ALK/f
                                           oof/cc-pVTZ/TDDFT
