SIRIUS 7.5.2, git hash: https://api.github.com/repos/electronic-structure/SIRIUS/git/ref/tags/v7.5.2
 DBCSR| CPU Multiplication driver                                           XSMM (U)
 DBCSR| Multrec recursion limit                                              512 (U)
 DBCSR| Multiplication stack size                                           1000 (D)
 DBCSR| Maximum elements for images                                    UNLIMITED (U)
 DBCSR| Multiplicative factor virtual images                                   1 (U)
 DBCSR| Use multiplication densification                                       T (D)
 DBCSR| Multiplication size stacks                                             3 (U)
 DBCSR| Use memory pool for CPU allocation                                     F (U)
 DBCSR| Number of 3D layers                                               SINGLE (U)
 DBCSR| Use MPI memory allocation                                              F (U)
 DBCSR| Use RMA algorithm                                                      F (U)
 DBCSR| Use Communication thread                                               T (U)
 DBCSR| Communication thread load                                             75 (D)
 DBCSR| MPI: My process id                                                     0
 DBCSR| MPI: Number of processes                                             192
 DBCSR| OMP: Current number of threads                                         4
 DBCSR| OMP: Max number of threads                                             4
 DBCSR| Split modifier for TAS multiplication algorithm                  1.0E+00 (U)


  **** **** ******  **  PROGRAM STARTED AT               2025-03-21 09:20:32.643
 ***** ** ***  *** **   PROGRAM STARTED ON                              n2cn0389
 **    ****   ******    PROGRAM STARTED BY                              metdyn02
 ***** **    ** ** **   PROGRAM PROCESS ID                               3164625
  **** **  *******  **  PROGRAM STARTED IN /scratch/hpc-prf-metdyn/metdyn02_Remi
                                           /10_MOL/05_MOL/aUKBqsEOTmq69kFe5R_nOg
                                           /5k_set_final_qzvp/PAZROZ/TZVP/GW+BSE
                                           /1e-4

 CP2K| version string:                 CP2K version 2025.1 (Development Version)
 CP2K| source code revision number:                                  git:f0c7327
 CP2K| cp2kflags: omp libint fftw3 libxc libgrpp elpa parallel scalapack mpi_f08
 CP2K|             cosma xsmm plumed2 spglib sirius libvori libbqb libvdwxc hdf5
 CP2K| is freely available from                            https://www.cp2k.org/
 CP2K| Program compiled at                          Wed Mar 12 18:25:30 CET 2025
 CP2K| Program compiled on                                              n2login1
 CP2K| Program compiled for                                                local
 CP2K| Data directory path    /opt/software/pc2/EB-SW/software/CP2K/2024.1-foss-
 CP2K| Input file name                                                    GW.inp

 GLOBAL| Force Environment number                                              1
 GLOBAL| Basis set file name            /scratch/hpc-prf-metdyn/metdyn02_Remi/BA
 GLOBAL| Potential file name            /pc2/groups/hpc-prf-metdyn/metdyn02_Remi
 GLOBAL| MM Potential file name                                     MM_POTENTIAL
 GLOBAL| Coordinate file name                                      __STD_INPUT__
 GLOBAL| Method name                                                        CP2K
 GLOBAL| Project name                                                       MoS2
 GLOBAL| Run type                                                         ENERGY
 GLOBAL| FFT library                                                       FFTW3
 GLOBAL| Diagonalization library                                            ELPA
 GLOBAL| DGEMM library                                                      BLAS
 GLOBAL| Minimum number of eigenvectors for ELPA usage                        16
 GLOBAL| Orthonormality check for eigenvectors                          DISABLED
 GLOBAL| Matrix multiplication library                                     COSMA
 GLOBAL| All-to-all communication in single precision                          F
 GLOBAL| FFTs using library dependent lengths                                  F
 GLOBAL| Grid backend                                                       AUTO
 GLOBAL| Global print level                                               MEDIUM
 GLOBAL| MPI I/O enabled                                                       T
 GLOBAL| Total number of message passing processes                           192
 GLOBAL| Number of threads for this process                                    4
 GLOBAL| This output is from process                                           0
 GLOBAL| OpenMP stack size per thread (OMP_STACKSIZE)                    default
 GLOBAL| CPU model name                          AMD EPYC 7763 64-Core Processor
 GLOBAL| CPUID                                                              1002

 MEMORY| system memory details [Kb]
 MEMORY|                        rank 0           min           max       average
 MEMORY| MemTotal            263899252     263899252     263899264     263899259
 MEMORY| MemFree             240525860     240525860     243571136     242073973
 MEMORY| Buffers                211652         88088        211652        153690
 MEMORY| Cached                8742692       6207196       8742692       7551028
 MEMORY| Slab                  2778940       2112780       3979564       2670977
 MEMORY| SReclaimable           592296        334308        843956        503799
 MEMORY| MemLikelyFree       250072500     249387752     251068224     250282492


 *** Fundamental physical constants (SI units) ***

 *** Literature: B. J. Mohr and B. N. Taylor,
 ***             CODATA recommended values of the fundamental physical
 ***             constants: 2006, Web Version 5.1
 ***             http://physics.nist.gov/constants

 Speed of light in vacuum [m/s]                             2.99792458000000E+08
 Magnetic constant or permeability of vacuum [N/A**2]       1.25663706143592E-06
 Electric constant or permittivity of vacuum [F/m]          8.85418781762039E-12
 Planck constant (h) [J*s]                                  6.62606896000000E-34
 Planck constant (h-bar) [J*s]                              1.05457162825177E-34
 Elementary charge [C]                                      1.60217648700000E-19
 Electron mass [kg]                                         9.10938215000000E-31
 Electron g factor [ ]                                     -2.00231930436220E+00
 Proton mass [kg]                                           1.67262163700000E-27
 Fine-structure constant                                    7.29735253760000E-03
 Rydberg constant [1/m]                                     1.09737315685270E+07
 Avogadro constant [1/mol]                                  6.02214179000000E+23
 Boltzmann constant [J/K]                                   1.38065040000000E-23
 Atomic mass unit [kg]                                      1.66053878200000E-27
 Bohr radius [m]                                            5.29177208590000E-11

 *** Conversion factors ***

 [u] -> [a.u.]                                              1.82288848426455E+03
 [Angstrom] -> [Bohr] = [a.u.]                              1.88972613288564E+00
 [a.u.] = [Bohr] -> [Angstrom]                              5.29177208590000E-01
 [a.u.] -> [s]                                              2.41888432650478E-17
 [a.u.] -> [fs]                                             2.41888432650478E-02
 [a.u.] -> [J]                                              4.35974393937059E-18
 [a.u.] -> [N]                                              8.23872205491840E-08
 [a.u.] -> [K]                                              3.15774647902944E+05
 [a.u.] -> [kJ/mol]                                         2.62549961709828E+03
 [a.u.] -> [kcal/mol]                                       6.27509468713739E+02
 [a.u.] -> [Pa]                                             2.94210107994716E+13
 [a.u.] -> [bar]                                            2.94210107994716E+08
 [a.u.] -> [atm]                                            2.90362800883016E+08
 [a.u.] -> [eV]                                             2.72113838565563E+01
 [a.u.] -> [Hz]                                             6.57968392072181E+15
 [a.u.] -> [1/cm] (wave numbers)                            2.19474631370540E+05
 [a.u./Bohr**2] -> [1/cm]                                   5.14048714338585E+03
 

 CELL_TOP| Volume [angstrom^3]:                                     27000.000000
 CELL_TOP| Vector a [angstrom    30.000     0.000     0.000   |a| =    30.000000
 CELL_TOP| Vector b [angstrom     0.000    30.000     0.000   |b| =    30.000000
 CELL_TOP| Vector c [angstrom     0.000     0.000    30.000   |c| =    30.000000
 CELL_TOP| Angle (b,c), alpha [degree]:                                90.000000
 CELL_TOP| Angle (a,c), beta  [degree]:                                90.000000
 CELL_TOP| Angle (a,b), gamma [degree]:                                90.000000
 CELL_TOP| Numerically orthorhombic:                                         YES
 CELL_TOP| Periodicity                                                      NONE

 GENERATE|  Preliminary Number of Bonds generated:                             0
 GENERATE|  Achieved consistency in connectivity generation.

 CELL| Volume [angstrom^3]:                                         27000.000000
 CELL| Vector a [angstrom]:      30.000     0.000     0.000   |a| =    30.000000
 CELL| Vector b [angstrom]:       0.000    30.000     0.000   |b| =    30.000000
 CELL| Vector c [angstrom]:       0.000     0.000    30.000   |c| =    30.000000
 CELL| Angle (b,c), alpha [degree]:                                    90.000000
 CELL| Angle (a,c), beta  [degree]:                                    90.000000
 CELL| Angle (a,b), gamma [degree]:                                    90.000000
 CELL| Numerically orthorhombic:                                             YES
 CELL| Periodicity                                                          NONE

 CELL_REF| Volume [angstrom^3]:                                     27000.000000
 CELL_REF| Vector a [angstrom    30.000     0.000     0.000   |a| =    30.000000
 CELL_REF| Vector b [angstrom     0.000    30.000     0.000   |b| =    30.000000
 CELL_REF| Vector c [angstrom     0.000     0.000    30.000   |c| =    30.000000
 CELL_REF| Angle (b,c), alpha [degree]:                                90.000000
 CELL_REF| Angle (a,c), beta  [degree]:                                90.000000
 CELL_REF| Angle (a,b), gamma [degree]:                                90.000000
 CELL_REF| Numerically orthorhombic:                                         YES
 CELL_REF| Periodicity                                                      NONE

 *******************************************************************************
 *******************************************************************************
 **                                                                           **
 **     #####                         ##              ##                      **
 **    ##   ##            ##          ##              ##                      **
 **   ##     ##                       ##            ######                    **
 **   ##     ##  ##   ##  ##   #####  ##  ##   ####   ##    #####    #####    **
 **   ##     ##  ##   ##  ##  ##      ## ##   ##      ##   ##   ##  ##   ##   **
 **   ##  ## ##  ##   ##  ##  ##      ####     ###    ##   ######   ######    **
 **    ##  ###   ##   ##  ##  ##      ## ##      ##   ##   ##       ##        **
 **     #######   #####   ##   #####  ##  ##  ####    ##    #####   ##        **
 **           ##                                                    ##        **
 **                                                                           **
 **                                                ... make the atoms dance   **
 **                                                                           **
 **            Copyright (C) by CP2K developers group (2000-2025)             **
 **                      J. Chem. Phys. 152, 194103 (2020)                    **
 **                                                                           **
 *******************************************************************************

 DFT| Spin restricted Kohn-Sham (RKS) calculation                            RKS
 DFT| Multiplicity                                                             1
 DFT| Number of spin states                                                    1
 DFT| Charge                                                                   0
 DFT| Self-interaction correction (SIC)                                       NO
 DFT| Cutoffs: density                                              1.000000E-10
 DFT|          gradient                                             1.000000E-10
 DFT|          tau                                                  1.000000E-10
 DFT|          cutoff_smoothing_range                               0.000000E+00
 DFT| XC density smoothing                                                  NONE
 DFT| XC derivatives                                                          PW

 FUNCTIONAL| PBE:
 FUNCTIONAL| J.P.Perdew, K.Burke, M.Ernzerhof, Phys. Rev. Letter, vol. 77, n 18,
 FUNCTIONAL|  pp. 3865-3868, (1996)sx=0.750sc=1.000{spin unpolarized}           


 QS| Method:                                                                GAPW
 QS| Density plane wave grid type                        NON-SPHERICAL FULLSPACE
 QS| Number of grid levels:                                                    4
 QS| Density cutoff [a.u.]:                                                250.0
 QS| Multi grid cutoff [a.u.]: 1) grid level                               250.0
 QS|                           2) grid level                                83.3
 QS|                           3) grid level                                27.8
 QS|                           4) grid level                                 9.3
 QS| Grid level progression factor:                                          3.0
 QS| Relative density cutoff [a.u.]:                                        50.0
 QS| Interaction thresholds: eps_pgf_orb:                                1.0E-12
 QS|                         eps_filter_matrix:                          0.0E+00
 QS|                         eps_core_charge:                            1.0E-14
 QS|                         eps_rho_gspace:                             1.0E-12
 QS|                         eps_rho_rspace:                             1.0E-12
 QS|                         eps_gvg_rspace:                             1.0E-06
 QS|                         eps_ppl:                                    1.0E-02
 QS|                         eps_ppnl:                                   1.0E-08
 QS| GAPW|      One center basis from orbital basis primitives
 QS| GAPW|                   eps_fit:                                    1.0E-04
 QS| GAPW|                   eps_iso:                                    1.0E-12
 QS| GAPW|                   eps_svd:                                    1.0E-08
 QS| GAPW|                   eps_cpc:                                    1.0E-12
 QS| GAPW|   atom-r-grid: quadrature:                                     GC_LOG
 QS| GAPW|      atom-s-grid:  max l :                                          8
 QS| GAPW|      max_l_rho0 :                                                   2


 ATOMIC KIND INFORMATION

  1. Atomic kind: C                                     Number of atoms:       5

     Orbital Basis Set                                        aug-TZVP-MOLOPT-ae

       Number of orbital shell sets:                                           2
       Number of orbital shells:                                              16
       Number of primitive Cartesian functions:                               13
       Number of Cartesian basis functions:                                   71
       Number of spherical basis functions:                                   56
       Norm type:                                                              2

       Normalised Cartesian orbitals:

                        Set   Shell   Orbital            Exponent    Coefficient

                          1       1    1s                0.040000       0.000000
                                                         0.097098       0.019281
                                                         0.283960       0.027513
                                                         0.806764       0.003692
                                                         2.441624       0.446183
                                                         6.739673       1.752510
                                                        34.417212       0.637474

                          1       2    2s                0.040000       0.000000
                                                         0.097098       0.029117
                                                         0.283960       0.094997
                                                         0.806764       0.362633
                                                         2.441624      -0.104551
                                                         6.739673      -0.288836
                                                        34.417212       1.102934

                          1       3    3s                0.040000       0.000000
                                                         0.097098       0.047046
                                                         0.283960       0.169545
                                                         0.806764      -0.252838
                                                         2.441624      -0.199197
                                                         6.739673      -0.168746
                                                        34.417212      -6.120053

                          1       4    4s                0.040000       0.000000
                                                         0.097098       0.188374
                                                         0.283960      -0.341415
                                                         0.806764       0.091223
                                                         2.441624      -0.053941
                                                         6.739673      -0.401007
                                                        34.417212      -3.786931

                          1       5    5s                0.040000       0.099533
                                                         0.097098      -0.167672
                                                         0.283960      -0.126383
                                                         0.806764       0.030074
                                                         2.441624       0.000000
                                                         6.739673       0.000000
                                                        34.417212       0.000000

                          1       6    2px               0.040000       0.000000
                                                         0.097098       0.005087
                                                         0.283960       0.032186
                                                         0.806764       0.779023
                                                         2.441624       0.695625
                                                         6.739673       2.243109
                                                        34.417212       2.016536
                          1       6    2py               0.040000       0.000000
                                                         0.097098       0.005087
                                                         0.283960       0.032186
                                                         0.806764       0.779023
                                                         2.441624       0.695625
                                                         6.739673       2.243109
                                                        34.417212       2.016536
                          1       6    2pz               0.040000       0.000000
                                                         0.097098       0.005087
                                                         0.283960       0.032186
                                                         0.806764       0.779023
                                                         2.441624       0.695625
                                                         6.739673       2.243109
                                                        34.417212       2.016536

                          1       7    3px               0.040000       0.000000
                                                         0.097098       0.008084
                                                         0.283960       0.294367
                                                         0.806764      -0.188640
                                                         2.441624       0.912249
                                                         6.739673      -2.720242
                                                        34.417212       1.690366
                          1       7    3py               0.040000       0.000000
                                                         0.097098       0.008084
                                                         0.283960       0.294367
                                                         0.806764      -0.188640
                                                         2.441624       0.912249
                                                         6.739673      -2.720242
                                                        34.417212       1.690366
                          1       7    3pz               0.040000       0.000000
                                                         0.097098       0.008084
                                                         0.283960       0.294367
                                                         0.806764      -0.188640
                                                         2.441624       0.912249
                                                         6.739673      -2.720242
                                                        34.417212       1.690366

                          1       8    4px               0.040000       0.000000
                                                         0.097098       0.081068
                                                         0.283960      -0.017243
                                                         0.806764      -0.070055
                                                         2.441624      -0.855991
                                                         6.739673       1.761645
                                                        34.417212     -12.705833
                          1       8    4py               0.040000       0.000000
                                                         0.097098       0.081068
                                                         0.283960      -0.017243
                                                         0.806764      -0.070055
                                                         2.441624      -0.855991
                                                         6.739673       1.761645
                                                        34.417212     -12.705833
                          1       8    4pz               0.040000       0.000000
                                                         0.097098       0.081068
                                                         0.283960      -0.017243
                                                         0.806764      -0.070055
                                                         2.441624      -0.855991
                                                         6.739673       1.761645
                                                        34.417212     -12.705833

                          1       9    5px               0.040000       0.032085
                                                         0.097098      -0.027366
                                                         0.283960      -0.100343
                                                         0.806764      -0.020266
                                                         2.441624       0.000000
                                                         6.739673       0.000000
                                                        34.417212       0.000000
                          1       9    5py               0.040000       0.032085
                                                         0.097098      -0.027366
                                                         0.283960      -0.100343
                                                         0.806764      -0.020266
                                                         2.441624       0.000000
                                                         6.739673       0.000000
                                                        34.417212       0.000000
                          1       9    5pz               0.040000       0.032085
                                                         0.097098      -0.027366
                                                         0.283960      -0.100343
                                                         0.806764      -0.020266
                                                         2.441624       0.000000
                                                         6.739673       0.000000
                                                        34.417212       0.000000

                          1      10    3dx2              0.040000       0.000000
                                                         0.097098       0.001415
                                                         0.283960       0.015501
                                                         0.806764       0.546922
                                                         2.441624       3.763414
                                                         6.739673       4.248634
                                                        34.417212     174.894573
                          1      10    3dxy              0.040000       0.000000
                                                         0.097098       0.002451
                                                         0.283960       0.026849
                                                         0.806764       0.947296
                                                         2.441624       6.518424
                                                         6.739673       7.358850
                                                        34.417212     302.926287
                          1      10    3dxz              0.040000       0.000000
                                                         0.097098       0.002451
                                                         0.283960       0.026849
                                                         0.806764       0.947296
                                                         2.441624       6.518424
                                                         6.739673       7.358850
                                                        34.417212     302.926287
                          1      10    3dy2              0.040000       0.000000
                                                         0.097098       0.001415
                                                         0.283960       0.015501
                                                         0.806764       0.546922
                                                         2.441624       3.763414
                                                         6.739673       4.248634
                                                        34.417212     174.894573
                          1      10    3dyz              0.040000       0.000000
                                                         0.097098       0.002451
                                                         0.283960       0.026849
                                                         0.806764       0.947296
                                                         2.441624       6.518424
                                                         6.739673       7.358850
                                                        34.417212     302.926287
                          1      10    3dz2              0.040000       0.000000
                                                         0.097098       0.001415
                                                         0.283960       0.015501
                                                         0.806764       0.546922
                                                         2.441624       3.763414
                                                         6.739673       4.248634
                                                        34.417212     174.894573

                          1      11    4dx2              0.040000       0.000000
                                                         0.097098       0.001225
                                                         0.283960       0.139703
                                                         0.806764       0.323683
                                                         2.441624      -2.510108
                                                         6.739673      -4.401044
                                                        34.417212    -164.169372
                          1      11    4dxy              0.040000       0.000000
                                                         0.097098       0.002122
                                                         0.283960       0.241972
                                                         0.806764       0.560636
                                                         2.441624      -4.347634
                                                         6.739673      -7.622831
                                                        34.417212    -284.349694
                          1      11    4dxz              0.040000       0.000000
                                                         0.097098       0.002122
                                                         0.283960       0.241972
                                                         0.806764       0.560636
                                                         2.441624      -4.347634
                                                         6.739673      -7.622831
                                                        34.417212    -284.349694
                          1      11    4dy2              0.040000       0.000000
                                                         0.097098       0.001225
                                                         0.283960       0.139703
                                                         0.806764       0.323683
                                                         2.441624      -2.510108
                                                         6.739673      -4.401044
                                                        34.417212    -164.169372
                          1      11    4dyz              0.040000       0.000000
                                                         0.097098       0.002122
                                                         0.283960       0.241972
                                                         0.806764       0.560636
                                                         2.441624      -4.347634
                                                         6.739673      -7.622831
                                                        34.417212    -284.349694
                          1      11    4dz2              0.040000       0.000000
                                                         0.097098       0.001225
                                                         0.283960       0.139703
                                                         0.806764       0.323683
                                                         2.441624      -2.510108
                                                         6.739673      -4.401044
                                                        34.417212    -164.169372

                          1      12    5dx2              0.040000       0.006049
                                                         0.097098      -0.003128
                                                         0.283960       0.033814
                                                         0.806764       0.003338
                                                         2.441624       0.000000
                                                         6.739673       0.000000
                                                        34.417212       0.000000
                          1      12    5dxy              0.040000       0.010477
                                                         0.097098      -0.005418
                                                         0.283960       0.058567
                                                         0.806764       0.005781
                                                         2.441624       0.000000
                                                         6.739673       0.000000
                                                        34.417212       0.000000
                          1      12    5dxz              0.040000       0.010477
                                                         0.097098      -0.005418
                                                         0.283960       0.058567
                                                         0.806764       0.005781
                                                         2.441624       0.000000
                                                         6.739673       0.000000
                                                        34.417212       0.000000
                          1      12    5dy2              0.040000       0.006049
                                                         0.097098      -0.003128
                                                         0.283960       0.033814
                                                         0.806764       0.003338
                                                         2.441624       0.000000
                                                         6.739673       0.000000
                                                        34.417212       0.000000
                          1      12    5dyz              0.040000       0.010477
                                                         0.097098      -0.005418
                                                         0.283960       0.058567
                                                         0.806764       0.005781
                                                         2.441624       0.000000
                                                         6.739673       0.000000
                                                        34.417212       0.000000
                          1      12    5dz2              0.040000       0.006049
                                                         0.097098      -0.003128
                                                         0.283960       0.033814
                                                         0.806764       0.003338
                                                         2.441624       0.000000
                                                         6.739673       0.000000
                                                        34.417212       0.000000

                          1      13    4fx3              0.040000       0.000000
                                                         0.097098      -0.000799
                                                         0.283960       0.042127
                                                         0.806764       0.576468
                                                         2.441624       1.033755
                                                         6.739673      -2.026957
                                                        34.417212      49.427593
                          1      13    4fx2y             0.040000       0.000000
                                                         0.097098      -0.001786
                                                         0.283960       0.094199
                                                         0.806764       1.289022
                                                         2.441624       2.311546
                                                         6.739673      -4.532415
                                                        34.417212     110.523457
                          1      13    4fx2z             0.040000       0.000000
                                                         0.097098      -0.001786
                                                         0.283960       0.094199
                                                         0.806764       1.289022
                                                         2.441624       2.311546
                                                         6.739673      -4.532415
                                                        34.417212     110.523457
                          1      13    4fxy2             0.040000       0.000000
                                                         0.097098      -0.001786
                                                         0.283960       0.094199
                                                         0.806764       1.289022
                                                         2.441624       2.311546
                                                         6.739673      -4.532415
                                                        34.417212     110.523457
                          1      13    4fxyz             0.040000       0.000000
                                                         0.097098      -0.003093
                                                         0.283960       0.163158
                                                         0.806764       2.232651
                                                         2.441624       4.003716
                                                         6.739673      -7.850372
                                                        34.417212     191.432243
                          1      13    4fxz2             0.040000       0.000000
                                                         0.097098      -0.001786
                                                         0.283960       0.094199
                                                         0.806764       1.289022
                                                         2.441624       2.311546
                                                         6.739673      -4.532415
                                                        34.417212     110.523457
                          1      13    4fy3              0.040000       0.000000
                                                         0.097098      -0.000799
                                                         0.283960       0.042127
                                                         0.806764       0.576468
                                                         2.441624       1.033755
                                                         6.739673      -2.026957
                                                        34.417212      49.427593
                          1      13    4fy2z             0.040000       0.000000
                                                         0.097098      -0.001786
                                                         0.283960       0.094199
                                                         0.806764       1.289022
                                                         2.441624       2.311546
                                                         6.739673      -4.532415
                                                        34.417212     110.523457
                          1      13    4fyz2             0.040000       0.000000
                                                         0.097098      -0.001786
                                                         0.283960       0.094199
                                                         0.806764       1.289022
                                                         2.441624       2.311546
                                                         6.739673      -4.532415
                                                        34.417212     110.523457
                          1      13    4fz3              0.040000       0.000000
                                                         0.097098      -0.000799
                                                         0.283960       0.042127
                                                         0.806764       0.576468
                                                         2.441624       1.033755
                                                         6.739673      -2.026957
                                                        34.417212      49.427593

                          1      14    5fx3              0.040000       0.000092
                                                         0.097098       0.001511
                                                         0.283960      -0.094589
                                                         0.806764       0.000869
                                                         2.441624       0.000000
                                                         6.739673       0.000000
                                                        34.417212       0.000000
                          1      14    5fx2y             0.040000       0.000206
                                                         0.097098       0.003380
                                                         0.283960      -0.211507
                                                         0.806764       0.001943
                                                         2.441624       0.000000
                                                         6.739673       0.000000
                                                        34.417212       0.000000
                          1      14    5fx2z             0.040000       0.000206
                                                         0.097098       0.003380
                                                         0.283960      -0.211507
                                                         0.806764       0.001943
                                                         2.441624       0.000000
                                                         6.739673       0.000000
                                                        34.417212       0.000000
                          1      14    5fxy2             0.040000       0.000206
                                                         0.097098       0.003380
                                                         0.283960      -0.211507
                                                         0.806764       0.001943
                                                         2.441624       0.000000
                                                         6.739673       0.000000
                                                        34.417212       0.000000
                          1      14    5fxyz             0.040000       0.000357
                                                         0.097098       0.005854
                                                         0.283960      -0.366341
                                                         0.806764       0.003365
                                                         2.441624       0.000000
                                                         6.739673       0.000000
                                                        34.417212       0.000000
                          1      14    5fxz2             0.040000       0.000206
                                                         0.097098       0.003380
                                                         0.283960      -0.211507
                                                         0.806764       0.001943
                                                         2.441624       0.000000
                                                         6.739673       0.000000
                                                        34.417212       0.000000
                          1      14    5fy3              0.040000       0.000092
                                                         0.097098       0.001511
                                                         0.283960      -0.094589
                                                         0.806764       0.000869
                                                         2.441624       0.000000
                                                         6.739673       0.000000
                                                        34.417212       0.000000
                          1      14    5fy2z             0.040000       0.000206
                                                         0.097098       0.003380
                                                         0.283960      -0.211507
                                                         0.806764       0.001943
                                                         2.441624       0.000000
                                                         6.739673       0.000000
                                                        34.417212       0.000000
                          1      14    5fyz2             0.040000       0.000206
                                                         0.097098       0.003380
                                                         0.283960      -0.211507
                                                         0.806764       0.001943
                                                         2.441624       0.000000
                                                         6.739673       0.000000
                                                        34.417212       0.000000
                          1      14    5fz3              0.040000       0.000092
                                                         0.097098       0.001511
                                                         0.283960      -0.094589
                                                         0.806764       0.000869
                                                         2.441624       0.000000
                                                         6.739673       0.000000
                                                        34.417212       0.000000

                          1      15    5gx4              0.040000       0.000014
                                                         0.097098       0.001608
                                                         0.283960       0.004604
                                                         0.806764      -0.003474
                                                         2.441624       0.000000
                                                         6.739673       0.000000
                                                        34.417212       0.000000
                          1      15    5gx3y             0.040000       0.000036
                                                         0.097098       0.004255
                                                         0.283960       0.012180
                                                         0.806764      -0.009191
                                                         2.441624       0.000000
                                                         6.739673       0.000000
                                                        34.417212       0.000000
                          1      15    5gx3z             0.040000       0.000036
                                                         0.097098       0.004255
                                                         0.283960       0.012180
                                                         0.806764      -0.009191
                                                         2.441624       0.000000
                                                         6.739673       0.000000
                                                        34.417212       0.000000
                          1      15    5gx2y2            0.040000       0.000046
                                                         0.097098       0.005493
                                                         0.283960       0.015725
                                                         0.806764      -0.011865
                                                         2.441624       0.000000
                                                         6.739673       0.000000
                                                        34.417212       0.000000
                          1      15    5gx2yz            0.040000       0.000080
                                                         0.097098       0.009514
                                                         0.283960       0.027236
                                                         0.806764      -0.020551
                                                         2.441624       0.000000
                                                         6.739673       0.000000
                                                        34.417212       0.000000
                          1      15    5gx2z2            0.040000       0.000046
                                                         0.097098       0.005493
                                                         0.283960       0.015725
                                                         0.806764      -0.011865
                                                         2.441624       0.000000
                                                         6.739673       0.000000
                                                        34.417212       0.000000
                          1      15    5gxy3             0.040000       0.000036
                                                         0.097098       0.004255
                                                         0.283960       0.012180
                                                         0.806764      -0.009191
                                                         2.441624       0.000000
                                                         6.739673       0.000000
                                                        34.417212       0.000000
                          1      15    5gxy2z            0.040000       0.000080
                                                         0.097098       0.009514
                                                         0.283960       0.027236
                                                         0.806764      -0.020551
                                                         2.441624       0.000000
                                                         6.739673       0.000000
                                                        34.417212       0.000000
                          1      15    5gxyz2            0.040000       0.000080
                                                         0.097098       0.009514
                                                         0.283960       0.027236
                                                         0.806764      -0.020551
                                                         2.441624       0.000000
                                                         6.739673       0.000000
                                                        34.417212       0.000000
                          1      15    5gxz3             0.040000       0.000036
                                                         0.097098       0.004255
                                                         0.283960       0.012180
                                                         0.806764      -0.009191
                                                         2.441624       0.000000
                                                         6.739673       0.000000
                                                        34.417212       0.000000
                          1      15    5gy4              0.040000       0.000014
                                                         0.097098       0.001608
                                                         0.283960       0.004604
                                                         0.806764      -0.003474
                                                         2.441624       0.000000
                                                         6.739673       0.000000
                                                        34.417212       0.000000
                          1      15    5gy3z             0.040000       0.000036
                                                         0.097098       0.004255
                                                         0.283960       0.012180
                                                         0.806764      -0.009191
                                                         2.441624       0.000000
                                                         6.739673       0.000000
                                                        34.417212       0.000000
                          1      15    5gy2z2            0.040000       0.000046
                                                         0.097098       0.005493
                                                         0.283960       0.015725
                                                         0.806764      -0.011865
                                                         2.441624       0.000000
                                                         6.739673       0.000000
                                                        34.417212       0.000000
                          1      15    5gyz3             0.040000       0.000036
                                                         0.097098       0.004255
                                                         0.283960       0.012180
                                                         0.806764      -0.009191
                                                         2.441624       0.000000
                                                         6.739673       0.000000
                                                        34.417212       0.000000
                          1      15    5gz4              0.040000       0.000014
                                                         0.097098       0.001608
                                                         0.283960       0.004604
                                                         0.806764      -0.003474
                                                         2.441624       0.000000
                                                         6.739673       0.000000
                                                        34.417212       0.000000

                          2       1    1s            13575.369584       0.323227
                                                      2035.237517       2.062509
                                                       463.111112       2.210797
                                                       131.318553       4.954487
                                                        42.899593       1.730189
                                                        15.855102       4.257999

     RI Auxiliary Basis Set             RI_aug-TZVP-MOLOPT-ae_N_RI_073_s_p_d_f_g

       Number of orbital shell sets:                                          19
       Number of orbital shells:                                              19
       Number of primitive Cartesian functions:                               19
       Number of Cartesian basis functions:                                   97
       Number of spherical basis functions:                                   73
       Norm type:                                                              2

       Normalised Cartesian orbitals:

                        Set   Shell   Orbital            Exponent    Coefficient

                          1       1    1s                0.091816       0.118877

                          2       1    2s                0.287175       0.279589

                          3       1    8px               0.391455       0.441359
                          3       1    8py               0.391455       0.441359
                          3       1    8pz               0.391455       0.441359

                          4       1   12dx2              0.453199       0.412017
                          4       1   12dxy              0.453199       0.713635
                          4       1   12dxz              0.453199       0.713635
                          4       1   12dy2              0.453199       0.412017
                          4       1   12dyz              0.453199       0.713635
                          4       1   12dz2              0.453199       0.412017

                          5       1   15fx3              0.493596       0.300635
                          5       1   15fx2y             0.493596       0.672241
                          5       1   15fx2z             0.493596       0.672241
                          5       1   15fxy2             0.493596       0.672241
                          5       1   15fxyz             0.493596       1.164356
                          5       1   15fxz2             0.493596       0.672241
                          5       1   15fy3              0.493596       0.300635
                          5       1   15fy2z             0.493596       0.672241
                          5       1   15fyz2             0.493596       0.672241
                          5       1   15fz3              0.493596       0.300635

                          6       1   18gx4              0.552678       0.217888
                          6       1   18gx3y             0.552678       0.576478
                          6       1   18gx3z             0.552678       0.576478
                          6       1   18gx2y2            0.552678       0.744230
                          6       1   18gx2yz            0.552678       1.289044
                          6       1   18gx2z2            0.552678       0.744230
                          6       1   18gxy3             0.552678       0.576478
                          6       1   18gxy2z            0.552678       1.289044
                          6       1   18gxyz2            0.552678       1.289044
                          6       1   18gxz3             0.552678       0.576478
                          6       1   18gy4              0.552678       0.217888
                          6       1   18gy3z             0.552678       0.576478
                          6       1   18gy2z2            0.552678       0.744230
                          6       1   18gyz3             0.552678       0.576478
                          6       1   18gz4              0.552678       0.217888

                          7       1    9px               0.792647       1.066080
                          7       1    9py               0.792647       1.066080
                          7       1    9pz               0.792647       1.066080

                          8       1    3s                0.811053       0.609112

                          9       1   13dx2              1.050831       1.795115
                          9       1   13dxy              1.050831       3.109231
                          9       1   13dxz              1.050831       3.109231
                          9       1   13dy2              1.050831       1.795115
                          9       1   13dyz              1.050831       3.109231
                          9       1   13dz2              1.050831       1.795115

                         10       1   16fx3              1.094417       1.803497
                         10       1   16fx2y             1.094417       4.032742
                         10       1   16fx2z             1.094417       4.032742
                         10       1   16fxy2             1.094417       4.032742
                         10       1   16fxyz             1.094417       6.984914
                         10       1   16fxz2             1.094417       4.032742
                         10       1   16fy3              1.094417       1.803497
                         10       1   16fy2z             1.094417       4.032742
                         10       1   16fyz2             1.094417       4.032742
                         10       1   16fz3              1.094417       1.803497

                         11       1   19gx4              1.617251       4.174201
                         11       1   19gx3y             1.617251      11.043898
                         11       1   19gx3z             1.617251      11.043898
                         11       1   19gx2y2            1.617251      14.257611
                         11       1   19gx2yz            1.617251      24.694907
                         11       1   19gx2z2            1.617251      14.257611
                         11       1   19gxy3             1.617251      11.043898
                         11       1   19gxy2z            1.617251      24.694907
                         11       1   19gxyz2            1.617251      24.694907
                         11       1   19gxz3             1.617251      11.043898
                         11       1   19gy4              1.617251       4.174201
                         11       1   19gy3z             1.617251      11.043898
                         11       1   19gy2z2            1.617251      14.257611
                         11       1   19gyz3             1.617251      11.043898
                         11       1   19gz4              1.617251       4.174201

                         12       1   17fx3              2.247970       9.109259
                         12       1   17fx2y             2.247970      20.368923
                         12       1   17fx2z             2.247970      20.368923
                         12       1   17fxy2             2.247970      20.368923
                         12       1   17fxyz             2.247970      35.280010
                         12       1   17fxz2             2.247970      20.368923
                         12       1   17fy3              2.247970       9.109259
                         12       1   17fy2z             2.247970      20.368923
                         12       1   17fyz2             2.247970      20.368923
                         12       1   17fz3              2.247970       9.109259

                         13       1    4s                2.631051       1.472336

                         14       1   10px               2.735736       5.015136
                         14       1   10py               2.735736       5.015136
                         14       1   10pz               2.735736       5.015136

                         15       1   14dx2              3.531424      14.973444
                         15       1   14dxy              3.531424      25.934767
                         15       1   14dxz              3.531424      25.934767
                         15       1   14dy2              3.531424      14.973444
                         15       1   14dyz              3.531424      25.934767
                         15       1   14dz2              3.531424      14.973444

                         16       1    5s                8.634213       3.589857

                         17       1   11px              14.132879      39.059653
                         17       1   11py              14.132879      39.059653
                         17       1   11pz              14.132879      39.059653

                         18       1    6s               27.135268       8.473458

                         19       1    7s               81.848125      19.393967

       Atomic covalent radius [Angstrom]:                                  0.770

       Atomic van der Waals radius [Angstrom]:                             1.700

     The atoms of this atomic kind are PAW atoms (GAPW):
       Hard Gaussian function radius:                                      1.512
       Rho0 radius:                                                        1.512
       Maximum GTO radius used for PAW projector construction:            24.566

     GAPW Soft Basis Set                                 aug-TZVP-MOLOPT-ae_soft

       Number of orbital shell sets:                                           2
       Number of orbital shells:                                              16
       Number of primitive Cartesian functions:                                5
       Number of Cartesian basis functions:                                   71
       Number of spherical basis functions:                                   56
       Norm type:                                                              2

       Normalised Cartesian orbitals:

                        Set   Shell   Orbital            Exponent    Coefficient

                          1       1    1s                0.040000       0.000000
                                                         0.097098       0.019281
                                                         0.283960       0.027513
                                                         0.806764       0.003692
                                                         2.441624       0.446183

                          1       2    2s                0.040000       0.000000
                                                         0.097098       0.029117
                                                         0.283960       0.094997
                                                         0.806764       0.362633
                                                         2.441624      -0.104551

                          1       3    3s                0.040000       0.000000
                                                         0.097098       0.047046
                                                         0.283960       0.169545
                                                         0.806764      -0.252838
                                                         2.441624      -0.199197

                          1       4    4s                0.040000       0.000000
                                                         0.097098       0.188374
                                                         0.283960      -0.341415
                                                         0.806764       0.091223
                                                         2.441624      -0.053941

                          1       5    5s                0.040000       0.099533
                                                         0.097098      -0.167672
                                                         0.283960      -0.126383
                                                         0.806764       0.030074
                                                         2.441624       0.000000

                          1       6    2px               0.040000       0.000000
                                                         0.097098       0.005087
                                                         0.283960       0.032186
                                                         0.806764       0.779023
                                                         2.441624       0.695625
                          1       6    2py               0.040000       0.000000
                                                         0.097098       0.005087
                                                         0.283960       0.032186
                                                         0.806764       0.779023
                                                         2.441624       0.695625
                          1       6    2pz               0.040000       0.000000
                                                         0.097098       0.005087
                                                         0.283960       0.032186
                                                         0.806764       0.779023
                                                         2.441624       0.695625

                          1       7    3px               0.040000       0.000000
                                                         0.097098       0.008084
                                                         0.283960       0.294367
                                                         0.806764      -0.188640
                                                         2.441624       0.912249
                          1       7    3py               0.040000       0.000000
                                                         0.097098       0.008084
                                                         0.283960       0.294367
                                                         0.806764      -0.188640
                                                         2.441624       0.912249
                          1       7    3pz               0.040000       0.000000
                                                         0.097098       0.008084
                                                         0.283960       0.294367
                                                         0.806764      -0.188640
                                                         2.441624       0.912249

                          1       8    4px               0.040000       0.000000
                                                         0.097098       0.081068
                                                         0.283960      -0.017243
                                                         0.806764      -0.070055
                                                         2.441624      -0.855991
                          1       8    4py               0.040000       0.000000
                                                         0.097098       0.081068
                                                         0.283960      -0.017243
                                                         0.806764      -0.070055
                                                         2.441624      -0.855991
                          1       8    4pz               0.040000       0.000000
                                                         0.097098       0.081068
                                                         0.283960      -0.017243
                                                         0.806764      -0.070055
                                                         2.441624      -0.855991

                          1       9    5px               0.040000       0.032085
                                                         0.097098      -0.027366
                                                         0.283960      -0.100343
                                                         0.806764      -0.020266
                                                         2.441624       0.000000
                          1       9    5py               0.040000       0.032085
                                                         0.097098      -0.027366
                                                         0.283960      -0.100343
                                                         0.806764      -0.020266
                                                         2.441624       0.000000
                          1       9    5pz               0.040000       0.032085
                                                         0.097098      -0.027366
                                                         0.283960      -0.100343
                                                         0.806764      -0.020266
                                                         2.441624       0.000000

                          1      10    3dx2              0.040000       0.000000
                                                         0.097098       0.001415
                                                         0.283960       0.015501
                                                         0.806764       0.546922
                                                         2.441624       3.763414
                          1      10    3dxy              0.040000       0.000000
                                                         0.097098       0.002451
                                                         0.283960       0.026849
                                                         0.806764       0.947296
                                                         2.441624       6.518424
                          1      10    3dxz              0.040000       0.000000
                                                         0.097098       0.002451
                                                         0.283960       0.026849
                                                         0.806764       0.947296
                                                         2.441624       6.518424
                          1      10    3dy2              0.040000       0.000000
                                                         0.097098       0.001415
                                                         0.283960       0.015501
                                                         0.806764       0.546922
                                                         2.441624       3.763414
                          1      10    3dyz              0.040000       0.000000
                                                         0.097098       0.002451
                                                         0.283960       0.026849
                                                         0.806764       0.947296
                                                         2.441624       6.518424
                          1      10    3dz2              0.040000       0.000000
                                                         0.097098       0.001415
                                                         0.283960       0.015501
                                                         0.806764       0.546922
                                                         2.441624       3.763414

                          1      11    4dx2              0.040000       0.000000
                                                         0.097098       0.001225
                                                         0.283960       0.139703
                                                         0.806764       0.323683
                                                         2.441624      -2.510108
                          1      11    4dxy              0.040000       0.000000
                                                         0.097098       0.002122
                                                         0.283960       0.241972
                                                         0.806764       0.560636
                                                         2.441624      -4.347634
                          1      11    4dxz              0.040000       0.000000
                                                         0.097098       0.002122
                                                         0.283960       0.241972
                                                         0.806764       0.560636
                                                         2.441624      -4.347634
                          1      11    4dy2              0.040000       0.000000
                                                         0.097098       0.001225
                                                         0.283960       0.139703
                                                         0.806764       0.323683
                                                         2.441624      -2.510108
                          1      11    4dyz              0.040000       0.000000
                                                         0.097098       0.002122
                                                         0.283960       0.241972
                                                         0.806764       0.560636
                                                         2.441624      -4.347634
                          1      11    4dz2              0.040000       0.000000
                                                         0.097098       0.001225
                                                         0.283960       0.139703
                                                         0.806764       0.323683
                                                         2.441624      -2.510108

                          1      12    5dx2              0.040000       0.006049
                                                         0.097098      -0.003128
                                                         0.283960       0.033814
                                                         0.806764       0.003338
                                                         2.441624       0.000000
                          1      12    5dxy              0.040000       0.010477
                                                         0.097098      -0.005418
                                                         0.283960       0.058567
                                                         0.806764       0.005781
                                                         2.441624       0.000000
                          1      12    5dxz              0.040000       0.010477
                                                         0.097098      -0.005418
                                                         0.283960       0.058567
                                                         0.806764       0.005781
                                                         2.441624       0.000000
                          1      12    5dy2              0.040000       0.006049
                                                         0.097098      -0.003128
                                                         0.283960       0.033814
                                                         0.806764       0.003338
                                                         2.441624       0.000000
                          1      12    5dyz              0.040000       0.010477
                                                         0.097098      -0.005418
[...]
 https://doi.org/10.1002/wcms.1159

 U. Borstnik, J. VandeVondele, V. Weber, J. Hutter.
 Parallel Comput. 40, 47-58 (2014).
 Sparse matrix multiplication: The distributed block-compressed sparse row 
 library.
 https://doi.org/10.1016/j.parco.2014.03.012

 A. Marek, V. Blum, R. Johanni, V. Havu, B. Lang, T. Auckenthaler, A. Heinecke, 
 H. Bungartz, H. Lederer.
 J. Phys. Condens. Matter 26, 213201 (2014).
 The ELPA library: scalable parallel eigenvalue solutions for electronic 
 structure theory and computational science.
 https://doi.org/10.1088/0953-8984/26/21/213201

 M. Del Ben, J. Hutter, J. VandeVondele.
 J. Chem. Theory Comput. 9, 2654-2671 (2013).
 Electron Correlation in the Condensed Phase from a Resolution of Identity 
 Approach Based on the Gaussian and Plane Waves Scheme.
 https://doi.org/10.1021/ct4002202

 M. Del Ben, J. Hutter, J. VandeVondele.
 J. Chem. Theory Comput. 8, 4177-4188 (2012).
 Second-Order Moller-Plesset Perturbation Theory in the Condensed Phase: An 
 Efficient and Massively Parallel Gaussian and Plane Waves Approach.
 https://doi.org/10.1021/ct300531w

 M. Guidon, J. Hutter, J. VandeVondele.
 J. Chem. Theory Comput. 5, 3010-3021 (2009).
 Robust Periodic Hartree-Fock Exchange for Large-Scale Simulations Using 
 Gaussian Basis Sets.
 https://doi.org/10.1021/ct900494g

 M. Guidon, F. Schiffmann, J. Hutter, J. VandeVondele.
 J. Chem. Phys. 128, 214104 (2008).
 Ab initio molecular dynamics using hybrid density functionals.
 https://doi.org/10.1063/1.2931945

 L. Genovese, T. Deutsch, S. Goedecker.
 J. Chem. Phys. 127, 054704 (2007).
 Efficient and accurate three-dimensional Poisson solver for surface problems.
 https://doi.org/10.1063/1.2754685

 J. VandeVondele, J. Hutter.
 J. Chem. Phys. 127, 114105 (2007).
 Gaussian basis sets for accurate calculations on molecular systems in gas and 
 condensed phases.
 https://doi.org/10.1063/1.2770708

 L. Genovese, T. Deutsch, A. Neelov, S. Goedecker, G. Beylkin.
 J. Chem. Phys. 125, 074105 (2006).
 Efficient solution of Poisson's equation with free boundary conditions.
 https://doi.org/10.1063/1.2335442

 M. Frigo, S. G. Johnson.
 Proc. IEEE 93, 216-231 (2005).
 The design and implementation of FFTW3.
 https://doi.org/10.1109/JPROC.2004.840301

 M. Krack, M. Parrinello.
 Phys. Chem. Chem. Phys. 2, 2105-2112 (2000).
 All-electron ab-initio molecular dynamics.
 https://doi.org/10.1039/b001167n

 G. Lippert, J. Hutter, M. Parrinello.
 Theor. Chem. Acc. 103, 124-140 (1999).
 The Gaussian and augmented-plane-wave density functional method for ab initio 
 molecular dynamics simulations.
 https://doi.org/10.1007/s002140050523

 J. P. Perdew, K. Burke, M. Ernzerhof.
 Phys. Rev. Lett. 77, 3865-3868 (1996).
 Generalized gradient approximation made simple.
 https://doi.org/10.1103/PhysRevLett.77.3865


 -------------------------------------------------------------------------------
 -                                                                             -
 -                                T I M I N G                                  -
 -                                                                             -
 -------------------------------------------------------------------------------
 SUBROUTINE                       CALLS  ASD         SELF TIME        TOTAL TIME
                                MAXIMUM       AVERAGE  MAXIMUM  AVERAGE  MAXIMUM
 CP2K                                 1  1.0    0.016    0.043 1268.113 1268.117
 qs_energies                          1  2.0    0.000    0.000 1267.655 1267.790
 scf_env_do_scf                       1  3.0    0.000    0.000 1150.272 1150.279
 scf_env_do_scf_inner_loop           63  4.0    0.001    0.003 1150.272 1150.279
 qs_ks_build_kohn_sham_matrix        64  7.0    0.009    0.011 1121.450 1121.588
 qs_ks_update_qs_env                 63  5.0    0.000    0.001 1120.092 1120.231
 rebuild_ks_matrix                   63  6.0    0.000    0.000 1120.086 1120.224
 hfx_ks_matrix                       64  8.0    0.001    0.002 1049.981 1050.012
 integrate_four_center               64  9.0    7.194    9.568 1049.977 1050.000
 integrate_four_center_main          64 10.0    4.329   24.410  801.960 1007.444
 integrate_four_center_bin        13719 11.0  797.631 1007.343  797.631 1007.343
 mp_sync                            749  9.4  211.692  494.050  211.692  494.050
 mp2_main                             1  3.0    0.000    0.000  115.698  115.833
 mp2_gpw_main                         1  4.0    0.000    0.001  114.129  114.145
 rpa_ri_compute_en                    1  5.0    0.000    0.002   99.217   99.220
 rpa_num_int                          1  6.0    0.001    0.001   98.761   98.785
 compute_GW_self_energy             100  7.0    0.001    0.001   49.470   50.288
 compute_GW_self_energy_deep        100  8.0   27.132   27.279   49.178   49.994
 start_bse_calculation                1  7.0    0.000    0.002   46.169   46.171
 fft_wrap_pw1pw2                   1335  9.9    0.026    0.034   34.550   37.960
 fft_wrap_pw1pw2_250                951 11.1    0.739    0.897   32.499   37.080
 parallel_gemm_fm                   346  8.6    0.001    0.001   35.620   36.335
 parallel_gemm_fm_cosma             346  9.6   35.619   36.334   35.619   36.334
 fft3d_ps                          1335 11.9    4.762    6.633   31.599   34.947
 cp_fm_diag_elpa                     69  7.0    0.000    0.000   33.213   33.307
 cp_fm_diag_elpa_base                69  8.0   31.290   32.303   31.968   32.995
 calc_screening_functions             1 10.0   28.066   28.518   28.411   28.873
 mp_alltoall_z22v                  1335 13.9   25.296   28.224   25.296   28.224
 create_hermitian_form_of_ABBA        1  8.0    0.000    0.001   23.638   23.708
 qs_rho_update_rho_low               64  5.0    0.001    0.001   22.077   22.090
 diagonalize_C                        1  8.0    0.000    0.003   19.236   19.244
 calculate_rho_elec                  64  6.0    0.084    0.119   18.551   18.554
 pw_poisson_solve                    64  8.0    0.210    0.303   18.290   18.307
 cp_fm_power                          2  7.5    0.098    0.117   17.874   17.962
 qs_vxc_create                       64  8.0    0.001    0.001   17.228   17.228
 xc_vxc_pw_create                    63  9.0    0.132    0.186   17.227   17.227
 x_to_yz                            570 12.9    0.587    1.044   14.328   16.158
 mp2_ri_gpw_compute_in                1  5.0    0.006    0.011   14.827   14.830
 mp2_ri_gpw_compute_in_loop           1  6.0    0.000    0.000   14.795   14.798
 mp_sum_d                         10997  6.9    9.029   14.792    9.029   14.792
 contract_B_L                         4  7.0    0.023    0.027   11.168   14.361
 xc_pw_derive                       378 11.0    0.003    0.003   13.348   13.759
 yz_to_x                            509 13.2    0.450    0.524   11.962   13.308
 prepare_gapw_den                    64  8.0    0.001    0.001   12.605   13.072
 mp2_eri_3c_integrate                 1  7.0    0.004    0.006    3.397   13.015
 integrate_set_3c                  1365  8.0    3.134   12.178    3.393   13.010
 mp_cart_create                     433 10.2    9.743   12.922    9.743   12.922
 dbt_pgrid_create_expert             84 10.8    0.000    0.000    9.722   12.901
 density_rs2pw                       64  7.0    0.003    0.003   10.487   11.160
 sum_up_and_integrate                64  8.0    0.001    0.002    9.281    9.962
 integrate_v_rspace                  64  9.0    0.002    0.002    9.220    9.922
 ps_wavelet_solve                    64  9.0    3.721    5.546    8.981    9.725
 mp_waitany                       21356 11.5    7.442    8.891    7.442    8.891
 xc_rho_set_and_dset_create          63 10.0    0.160    0.229    7.961    8.878
 transfer_pw2rs                     321 10.6    0.005    0.009    8.062    8.820
 potential_pw2rs                     64 10.0    0.007    0.009    8.755    8.808
 xc_pw_divergence                    63 10.0    0.001    0.002    8.490    8.736
 grid_collocate_task_list            64  7.0    7.367    8.225    7.367    8.225
 transfer_rs2pw                     321  8.4    0.007    0.012    6.661    7.110
 calculate_rho_atom                 192  9.0    1.002    7.090    1.002    7.090
 mp_sum_dv                        29302 10.1    6.256    6.816    6.256    6.816
 transfer_pw2rs_250                 129 10.9    1.324    1.502    5.328    6.255
 mp_alltoall_d54                     64 10.0    2.642    5.727    2.642    5.727
 gspace_mixing                       62  5.0    0.081    0.115    5.477    5.485
 put_rho0_on_grid                    64  9.0    0.092    0.144    4.965    5.432
 calculate_vxc_atom                  64  8.0    0.029    0.150    5.139    5.140
 gaVxcgb_GC                          63  9.0    0.237    4.941    0.237    4.941
 mp_sum_dm                         2948  7.6    4.446    4.911    4.446    4.911
 integrate_vhg0_rspace               64  8.0    0.319    0.370    4.327    4.818
 transfer_rs2pw_250                 129 10.0    1.291    1.411    4.172    4.616
 mp_alltoall_d45                     65 10.0    3.114    3.872    3.114    3.872
 fft_wrap_pw1pw2_90                 128 10.5    0.025    0.044    1.618    3.731
 mp_waitall_1                     61854 12.0    2.935    3.668    2.935    3.668
 mp_alltoall_d11v                  1216  9.5    2.344    3.584    2.344    3.584
 calculate_rho_atom_coeff            64  6.0    0.196    0.343    3.525    3.538
 qs_scf_new_mos                      63  5.0    0.001    0.001    2.916    2.989
 broyden_mixing                      62  6.0    2.520    2.557    2.611    2.628
 cp2k_distribution_to_z_slices       64  9.0    0.254    0.303    2.004    2.570
 eigensolver_symm                    64  6.0    0.004    0.005    2.551    2.570
 rpa_num_int_RPA_matrix_operati     100  7.0    0.001    0.003    2.203    2.207
 cp_fm_redistribute_end              69  8.0    1.071    2.099    1.081    2.105
 create_A                             1  8.0    0.007    0.015    2.045    2.063
 transfer_pw2rs_90                   64 12.0    0.300    0.358    1.518    1.968
 calc_mat_Q                         100  8.0    0.000    0.000    1.948    1.963
 contract_S_to_Q                    100  9.0    0.000    0.001    1.939    1.956
 Vh_1c_gg_integrals                  64  8.0    0.027    0.477    0.880    1.948
 mp_max_i                           562  2.8    0.628    1.753    0.628    1.753
 transfer_rs2pw_90                   64  9.0    0.312    0.370    1.315    1.561
 fm_general_add_bse                   5 10.2    0.000    0.000    1.453    1.532
 cp_fm_syrk                           3  7.0    1.455    1.457    1.455    1.457
 pw_integral_ab_c1d_c1d_gs           64  9.0    0.185    0.210    0.643    1.413
 dbt_total                            8  8.0    0.000    0.000    1.394    1.394
 compute_vec_Sigma_x_minus_vxc_       1  4.0    0.000    0.000    1.376    1.376
 xc_functional_eval                 189 10.9    0.001    0.001    0.723    1.324
 pbe_lda_eval                       189 11.9    0.723    1.323    0.723    1.323
 rs_grid_zero                       322 11.1    0.984    1.304    0.984    1.304
 dbt_contract                         4  9.0    0.000    0.000    1.272    1.291
 mp_sum_l                           926  6.0    0.510    1.279    0.510    1.279
 create_B                             1  8.0    0.000    0.004    1.131    1.271
 integrate_four_center_load          64 10.0    0.000    0.000    0.473    1.245
 hfx_load_balance                     1 11.0    0.000    0.000    0.473    1.244
 hfx_load_balance_range               1 12.0    0.000    0.000    0.461    1.232
 fm_general_add_bse_5_comm_buff       5 11.2    0.000    0.000    1.126    1.194
 communicate_buffer                   5 12.2    0.000    0.000    1.126    1.194
 transfer_pw2rs_30                   64 12.0    0.282    0.321    0.965    1.140
 qs_energies_init_hamiltonians        1  3.0    0.000    0.000    1.122    1.122
 build_core_hamiltonian_matrix        1  4.0    0.000    0.000    1.118    1.118
 overlap_condnum                      1  5.0    0.000    0.000    1.103    1.117
 grid_integrate_task_list            64 10.0    0.131    1.073    0.131    1.073
 pw_derive                          570 11.3    0.970    1.049    0.970    1.049
 cp_fm_uplo_to_full                 173  8.2    1.024    1.045    1.024    1.045
 arnoldi_conjugate_gradient           5  6.0    0.019    0.024    1.033    1.033
 rs_gather_matrices                  64 10.0    0.002    0.019    0.332    1.024
 pw_copy                            955 10.6    0.899    1.022    0.899    1.022
 transfer_rs2pw_30                   64  9.0    0.355    0.393    0.903    0.978
 update_ks_atom                      64  8.0    0.107    0.245    0.778    0.920
 pw_gather_p                        637 11.8    0.696    0.853    0.696    0.853
 abc_contract                      1365  9.0    0.259    0.843    0.259    0.843
 mp_isend_dv                      25293 12.0    0.332    0.811    0.332    0.811
 pw_scatter_p                       698 12.1    0.756    0.799    0.756    0.799
 calculate_rho0_atom                192  9.0    0.735    0.791    0.735    0.791
 mp_sendrecv_dv                   24448 10.0    0.706    0.778    0.706    0.778
 calc_pair_dist_radii                 1 10.0    0.426    0.527    0.660    0.768
 pw_poisson_rebuild                  64  9.0    0.000    0.000    0.737    0.758
 ps_wavelet_create                    1 10.0    0.000    0.000    0.737    0.758
 RS_z_slice_distribution              1 11.0    0.193    0.218    0.737    0.758
 dbt_tas_multiply                     8 11.5    0.000    0.000    0.732    0.733
 dbt_tas_total                        8 12.5    0.001    0.002    0.732    0.732
 mp_bcast_dm                       1920  9.0    0.671    0.697    0.671    0.697
 dbcsr_sym_matrix_vector_mult      6435  7.0    0.046    0.050    0.597    0.665
 dbt_copy                            12 10.1    0.000    0.000    0.591    0.636
 mp_isend_im2                      1324 13.3    0.233    0.633    0.233    0.633
 integrate_four_center_getP          64 10.0    0.029    0.041    0.588    0.626
 powell_optimize                 375026 11.0    0.578    0.613    0.578    0.613
 pw_poisson_set                      65  8.9    0.001    0.001    0.582    0.599
 pw_copy_to_array                   637 11.8    0.445    0.584    0.445    0.584
 mp_waitall_2                        48 15.8    0.475    0.567    0.475    0.567
 dbt_reshape                          8 11.6    0.047    0.053    0.501    0.540
 init_scf_run                         1  3.0    0.000    0.000    0.474    0.474
 create_integ_mat                     4  6.0    0.002    0.006    0.449    0.472
 dbt_communicate_buffer               8 12.6    0.001    0.001    0.429    0.469
 array2fm                             4  7.0    0.000    0.000    0.421    0.461
 dbt_tas_dbm                          8 13.5    0.000    0.000    0.457    0.457
 mp_isend_dm3                      2828 11.5    0.341    0.443    0.341    0.443
 scf_env_initial_rho_setup            1  4.0    0.000    0.000    0.439    0.439
 dbm_multiply                         8 15.5    0.370    0.411    0.370    0.411
 integrate_four_center_dist_KS       64 10.0    0.019    0.023    0.405    0.407
 dbt_tas_mm_1N                        6 14.5    0.000    0.000    0.365    0.406
 postprocess_bse                      1  9.0    0.000    0.000    0.374    0.406
 pw_axpy                            635  9.3    0.326    0.384    0.326    0.384
 dbcsr_rep_row_to_rep_col_vec      6435  8.0    0.017    0.023    0.176    0.367
 fft_wrap_pw1pw2_30                 128 10.5    0.003    0.004    0.283    0.359
 pw_copy_from_array                 698 12.1    0.260    0.341    0.260    0.341
 cp_fm_to_fm_submat_general         112 10.1    0.279    0.339    0.279    0.339
 dbcsr_multiply_generic             108  8.1    0.003    0.005    0.299    0.336
 mp_alltoall_z11v                   256 13.5    0.280    0.323    0.280    0.323
 copy_dbcsr_to_fm                    94  6.6    0.001    0.002    0.250    0.316
 get_oscillator_strengths             1 10.0    0.000    0.000    0.315    0.315
 transfer_rs2pw_10                   64  9.0    0.106    0.126    0.263    0.296
 dbt_remap                            8 10.0    0.001    0.001    0.293    0.293
 mp_alltoall_i22                    320  9.2    0.218    0.288    0.218    0.288
 transfer_pw2rs_10                   64 12.0    0.074    0.083    0.246    0.283
 cp_fm_cholesky_invert              101  8.0    0.270    0.280    0.270    0.280
 cp_fm_redistribute_start            69  8.0    0.069    0.081    0.164    0.269
 dbcsr_col_vec_to_rep_row          6435  8.0    0.021    0.027    0.169    0.264
 array2fm_fill                        4  8.0    0.024    0.041    0.159    0.257
 cp_fm_cholesky_decompose           102  9.0    0.234    0.252    0.234    0.252
 mp_wait                            163  9.0    0.135    0.247    0.135    0.247
 pw_zero                            380 10.3    0.220    0.241    0.220    0.241
 dbcsr_desymmetrize_deep             96  7.5    0.005    0.007    0.171    0.240
 mp_sum_i                            21  9.7    0.136    0.238    0.136    0.238
 restraint_control                    1  2.0    0.000    0.000    0.135    0.237
 mp2_main_alloc_hfx                   1  4.0    0.104    0.237    0.104    0.237
 compute_Erpa_by_freq_int           100  8.0    0.001    0.001    0.228    0.230
 mp_rank_compare                   1335 12.9    0.189    0.223    0.189    0.223
 calculate_dm_sparse                 63  6.0    0.000    0.001    0.201    0.216
 cp_dbcsr_plus_fm_fm_t               63  7.0    0.001    0.001    0.200    0.215
 dbt_tas_estimate_result_nze          4 12.0    0.005    0.006    0.204    0.204
 dbcsr_add_d                       9701  7.0    0.004    0.005    0.033    0.204
 dbt_tas_replicate                    8 13.5    0.058    0.075    0.181    0.201
 dbcsr_add_anytype                 9701  8.0    0.005    0.025    0.029    0.199
 multiply_cannon                    108  9.1    0.007    0.007    0.168    0.194
 array2fm_isendrecv                   4  8.0    0.002    0.005    0.065    0.193
 yz_to_xz                           128 14.0    0.009    0.018    0.148    0.187
 array2fm_info                        4  8.0    0.097    0.181    0.100    0.183
 multiply_cannon_loop               108 10.1    0.005    0.006    0.152    0.177
 xz_to_yz                           128 11.0    0.007    0.014    0.148    0.177
 dbcsr_complete_redistribute        224  8.4    0.022    0.027    0.147    0.168
 mp_isendrecv_dv                  48896 12.0    0.040    0.158    0.040    0.158
 cp_fm_symm                          64  7.0    0.147    0.152    0.147    0.152
 qs_init_subsys                       1  2.0    0.002    0.002    0.147    0.147
 multiply_cannon_multrec           1672 11.1    0.112    0.140    0.113    0.141
 fft_wrap_pw1pw2_10                 128 10.5    0.001    0.001    0.124    0.138
 mp_bcast_dv                       6502  9.0    0.081    0.134    0.081    0.134
 dbcsr_finalize                   10916 10.3    0.004    0.036    0.030    0.128
 -------------------------------------------------------------------------------

 The number of warnings for this run is : 1
 
 -------------------------------------------------------------------------------
  **** **** ******  **  PROGRAM ENDED AT                 2025-03-21 09:41:42.881
 ***** ** ***  *** **   PROGRAM RAN ON                                  n2cn0389
 **    ****   ******    PROGRAM RAN BY                                  metdyn02
 ***** **    ** ** **   PROGRAM PROCESS ID                               3164625
  **** **  *******  **  PROGRAM STOPPED IN /scratch/hpc-prf-metdyn/metdyn02_Remi
                                           /10_MOL/05_MOL/aUKBqsEOTmq69kFe5R_nOg
                                           /5k_set_final_qzvp/PAZROZ/TZVP/GW+BSE
                                           /1e-4
