SIRIUS 7.5.2, git hash: https://api.github.com/repos/electronic-structure/SIRIUS/git/ref/tags/v7.5.2
 DBCSR| CPU Multiplication driver                                           XSMM (U)
 DBCSR| Multrec recursion limit                                              512 (U)
 DBCSR| Multiplication stack size                                           1000 (D)
 DBCSR| Maximum elements for images                                    UNLIMITED (U)
 DBCSR| Multiplicative factor virtual images                                   1 (U)
 DBCSR| Use multiplication densification                                       T (D)
 DBCSR| Multiplication size stacks                                             3 (U)
 DBCSR| Use memory pool for CPU allocation                                     F (U)
 DBCSR| Number of 3D layers                                               SINGLE (U)
 DBCSR| Use MPI memory allocation                                              F (U)
 DBCSR| Use RMA algorithm                                                      F (U)
 DBCSR| Use Communication thread                                               T (U)
 DBCSR| Communication thread load                                             75 (D)
 DBCSR| MPI: My process id                                                     0
 DBCSR| MPI: Number of processes                                             192
 DBCSR| OMP: Current number of threads                                         4
 DBCSR| OMP: Max number of threads                                             4
 DBCSR| Split modifier for TAS multiplication algorithm                  1.0E+00 (U)


  **** **** ******  **  PROGRAM STARTED AT               2025-03-13 14:23:29.481
 ***** ** ***  *** **   PROGRAM STARTED ON                              n2cn0248
 **    ****   ******    PROGRAM STARTED BY                              metdyn02
 ***** **    ** ** **   PROGRAM PROCESS ID                                773882
  **** **  *******  **  PROGRAM STARTED IN /scratch/hpc-prf-metdyn/metdyn02_Remi
                                           /10_MOL/05_MOL/aUKBqsEOTmq69kFe5R_nOg
                                           /5k_set_final_qzvp/FAYZOU/SZV/GW+BSE/
                                           RILIM

 CP2K| version string:                 CP2K version 2025.1 (Development Version)
 CP2K| source code revision number:                                  git:f0c7327
 CP2K| cp2kflags: omp libint fftw3 libxc libgrpp elpa parallel scalapack mpi_f08
 CP2K|             cosma xsmm plumed2 spglib sirius libvori libbqb libvdwxc hdf5
 CP2K| is freely available from                            https://www.cp2k.org/
 CP2K| Program compiled at                          Wed Mar 12 18:25:30 CET 2025
 CP2K| Program compiled on                                              n2login1
 CP2K| Program compiled for                                                local
 CP2K| Data directory path    /opt/software/pc2/EB-SW/software/CP2K/2024.1-foss-
 CP2K| Input file name                                                    GW.inp

 GLOBAL| Force Environment number                                              1
 GLOBAL| Basis set file name            /scratch/hpc-prf-metdyn/metdyn02_Remi/BA
 GLOBAL| Potential file name            /pc2/groups/hpc-prf-metdyn/metdyn02_Remi
 GLOBAL| MM Potential file name                                     MM_POTENTIAL
 GLOBAL| Coordinate file name                                      __STD_INPUT__
 GLOBAL| Method name                                                        CP2K
 GLOBAL| Project name                                                       MoS2
 GLOBAL| Run type                                                         ENERGY
 GLOBAL| FFT library                                                       FFTW3
 GLOBAL| Diagonalization library                                            ELPA
 GLOBAL| DGEMM library                                                      BLAS
 GLOBAL| Minimum number of eigenvectors for ELPA usage                        16
 GLOBAL| Orthonormality check for eigenvectors                          DISABLED
 GLOBAL| Matrix multiplication library                                     COSMA
 GLOBAL| All-to-all communication in single precision                          F
 GLOBAL| FFTs using library dependent lengths                                  F
 GLOBAL| Grid backend                                                       AUTO
 GLOBAL| Global print level                                               MEDIUM
 GLOBAL| MPI I/O enabled                                                       T
 GLOBAL| Total number of message passing processes                           192
 GLOBAL| Number of threads for this process                                    4
 GLOBAL| This output is from process                                           0
 GLOBAL| OpenMP stack size per thread (OMP_STACKSIZE)                    default
 GLOBAL| CPU model name                          AMD EPYC 7763 64-Core Processor
 GLOBAL| CPUID                                                              1002

 MEMORY| system memory details [Kb]
 MEMORY|                        rank 0           min           max       average
 MEMORY| MemTotal            263899260     263899260     263899264     263899262
 MEMORY| MemFree             241268024     241268024     247637348     244280438
 MEMORY| Buffers                197532         99704        249472        182354
 MEMORY| Cached                8518840       4708032       8518840       6473690
 MEMORY| Slab                  2503752       1397484       2646008       2072592
 MEMORY| SReclaimable           516608        281140        660688        426917
 MEMORY| MemLikelyFree       250501004     250501004     252729112     251363400


 *** Fundamental physical constants (SI units) ***

 *** Literature: B. J. Mohr and B. N. Taylor,
 ***             CODATA recommended values of the fundamental physical
 ***             constants: 2006, Web Version 5.1
 ***             http://physics.nist.gov/constants

 Speed of light in vacuum [m/s]                             2.99792458000000E+08
 Magnetic constant or permeability of vacuum [N/A**2]       1.25663706143592E-06
 Electric constant or permittivity of vacuum [F/m]          8.85418781762039E-12
 Planck constant (h) [J*s]                                  6.62606896000000E-34
 Planck constant (h-bar) [J*s]                              1.05457162825177E-34
 Elementary charge [C]                                      1.60217648700000E-19
 Electron mass [kg]                                         9.10938215000000E-31
 Electron g factor [ ]                                     -2.00231930436220E+00
 Proton mass [kg]                                           1.67262163700000E-27
 Fine-structure constant                                    7.29735253760000E-03
 Rydberg constant [1/m]                                     1.09737315685270E+07
 Avogadro constant [1/mol]                                  6.02214179000000E+23
 Boltzmann constant [J/K]                                   1.38065040000000E-23
 Atomic mass unit [kg]                                      1.66053878200000E-27
 Bohr radius [m]                                            5.29177208590000E-11

 *** Conversion factors ***

 [u] -> [a.u.]                                              1.82288848426455E+03
 [Angstrom] -> [Bohr] = [a.u.]                              1.88972613288564E+00
 [a.u.] = [Bohr] -> [Angstrom]                              5.29177208590000E-01
 [a.u.] -> [s]                                              2.41888432650478E-17
 [a.u.] -> [fs]                                             2.41888432650478E-02
 [a.u.] -> [J]                                              4.35974393937059E-18
 [a.u.] -> [N]                                              8.23872205491840E-08
 [a.u.] -> [K]                                              3.15774647902944E+05
 [a.u.] -> [kJ/mol]                                         2.62549961709828E+03
 [a.u.] -> [kcal/mol]                                       6.27509468713739E+02
 [a.u.] -> [Pa]                                             2.94210107994716E+13
 [a.u.] -> [bar]                                            2.94210107994716E+08
 [a.u.] -> [atm]                                            2.90362800883016E+08
 [a.u.] -> [eV]                                             2.72113838565563E+01
 [a.u.] -> [Hz]                                             6.57968392072181E+15
 [a.u.] -> [1/cm] (wave numbers)                            2.19474631370540E+05
 [a.u./Bohr**2] -> [1/cm]                                   5.14048714338585E+03
 

 CELL_TOP| Volume [angstrom^3]:                                     27000.000000
 CELL_TOP| Vector a [angstrom    30.000     0.000     0.000   |a| =    30.000000
 CELL_TOP| Vector b [angstrom     0.000    30.000     0.000   |b| =    30.000000
 CELL_TOP| Vector c [angstrom     0.000     0.000    30.000   |c| =    30.000000
 CELL_TOP| Angle (b,c), alpha [degree]:                                90.000000
 CELL_TOP| Angle (a,c), beta  [degree]:                                90.000000
 CELL_TOP| Angle (a,b), gamma [degree]:                                90.000000
 CELL_TOP| Numerically orthorhombic:                                         YES
 CELL_TOP| Periodicity                                                      NONE

 GENERATE|  Preliminary Number of Bonds generated:                             0
 GENERATE|  Achieved consistency in connectivity generation.

 CELL| Volume [angstrom^3]:                                         27000.000000
 CELL| Vector a [angstrom]:      30.000     0.000     0.000   |a| =    30.000000
 CELL| Vector b [angstrom]:       0.000    30.000     0.000   |b| =    30.000000
 CELL| Vector c [angstrom]:       0.000     0.000    30.000   |c| =    30.000000
 CELL| Angle (b,c), alpha [degree]:                                    90.000000
 CELL| Angle (a,c), beta  [degree]:                                    90.000000
 CELL| Angle (a,b), gamma [degree]:                                    90.000000
 CELL| Numerically orthorhombic:                                             YES
 CELL| Periodicity                                                          NONE

 CELL_REF| Volume [angstrom^3]:                                     27000.000000
 CELL_REF| Vector a [angstrom    30.000     0.000     0.000   |a| =    30.000000
 CELL_REF| Vector b [angstrom     0.000    30.000     0.000   |b| =    30.000000
 CELL_REF| Vector c [angstrom     0.000     0.000    30.000   |c| =    30.000000
 CELL_REF| Angle (b,c), alpha [degree]:                                90.000000
 CELL_REF| Angle (a,c), beta  [degree]:                                90.000000
 CELL_REF| Angle (a,b), gamma [degree]:                                90.000000
 CELL_REF| Numerically orthorhombic:                                         YES
 CELL_REF| Periodicity                                                      NONE

 *******************************************************************************
 *******************************************************************************
 **                                                                           **
 **     #####                         ##              ##                      **
 **    ##   ##            ##          ##              ##                      **
 **   ##     ##                       ##            ######                    **
 **   ##     ##  ##   ##  ##   #####  ##  ##   ####   ##    #####    #####    **
 **   ##     ##  ##   ##  ##  ##      ## ##   ##      ##   ##   ##  ##   ##   **
 **   ##  ## ##  ##   ##  ##  ##      ####     ###    ##   ######   ######    **
 **    ##  ###   ##   ##  ##  ##      ## ##      ##   ##   ##       ##        **
 **     #######   #####   ##   #####  ##  ##  ####    ##    #####   ##        **
 **           ##                                                    ##        **
 **                                                                           **
 **                                                ... make the atoms dance   **
 **                                                                           **
 **            Copyright (C) by CP2K developers group (2000-2025)             **
 **                      J. Chem. Phys. 152, 194103 (2020)                    **
 **                                                                           **
 *******************************************************************************

 DFT| Spin restricted Kohn-Sham (RKS) calculation                            RKS
 DFT| Multiplicity                                                             1
 DFT| Number of spin states                                                    1
 DFT| Charge                                                                   0
 DFT| Self-interaction correction (SIC)                                       NO
 DFT| Cutoffs: density                                              1.000000E-10
 DFT|          gradient                                             1.000000E-10
 DFT|          tau                                                  1.000000E-10
 DFT|          cutoff_smoothing_range                               0.000000E+00
 DFT| XC density smoothing                                                  NONE
 DFT| XC derivatives                                                          PW

 FUNCTIONAL| PBE:
 FUNCTIONAL| J.P.Perdew, K.Burke, M.Ernzerhof, Phys. Rev. Letter, vol. 77, n 18,
 FUNCTIONAL|  pp. 3865-3868, (1996)sx=0.750sc=1.000{spin unpolarized}           


 QS| Method:                                                                GAPW
 QS| Density plane wave grid type                        NON-SPHERICAL FULLSPACE
 QS| Number of grid levels:                                                    4
 QS| Density cutoff [a.u.]:                                                250.0
 QS| Multi grid cutoff [a.u.]: 1) grid level                               250.0
 QS|                           2) grid level                                83.3
 QS|                           3) grid level                                27.8
 QS|                           4) grid level                                 9.3
 QS| Grid level progression factor:                                          3.0
 QS| Relative density cutoff [a.u.]:                                        50.0
 QS| Interaction thresholds: eps_pgf_orb:                                1.0E-12
 QS|                         eps_filter_matrix:                          0.0E+00
 QS|                         eps_core_charge:                            1.0E-14
 QS|                         eps_rho_gspace:                             1.0E-12
 QS|                         eps_rho_rspace:                             1.0E-12
 QS|                         eps_gvg_rspace:                             1.0E-06
 QS|                         eps_ppl:                                    1.0E-02
 QS|                         eps_ppnl:                                   1.0E-08
 QS| GAPW|      One center basis from orbital basis primitives
 QS| GAPW|                   eps_fit:                                    1.0E-04
 QS| GAPW|                   eps_iso:                                    1.0E-12
 QS| GAPW|                   eps_svd:                                    1.0E-08
 QS| GAPW|                   eps_cpc:                                    1.0E-12
 QS| GAPW|   atom-r-grid: quadrature:                                     GC_LOG
 QS| GAPW|      atom-s-grid:  max l :                                          4
 QS| GAPW|      max_l_rho0 :                                                   2


 ATOMIC KIND INFORMATION

  1. Atomic kind: C                                     Number of atoms:       8

     Orbital Basis Set                                         aug-SZV-MOLOPT-ae

       Number of orbital shell sets:                                           2
       Number of orbital shells:                                               6
       Number of primitive Cartesian functions:                               13
       Number of Cartesian basis functions:                                   15
       Number of spherical basis functions:                                   14
       Norm type:                                                              2

       Normalised Cartesian orbitals:

                        Set   Shell   Orbital            Exponent    Coefficient

                          1       1    2s                0.070000       0.000000
                                                         0.143687       0.040037
                                                         0.313471       0.177689
                                                         0.721783       0.139661
                                                         1.876046      -0.038599
                                                         6.036200      -0.128975
                                                        30.497239      -0.122578

                          1       2    3s                0.070000      -0.142268
                                                         0.143687       0.288819
                                                         0.313471       0.010360
                                                         0.721783       0.175994
                                                         1.876046       0.000000
                                                         6.036200       0.000000
                                                        30.497239       0.000000

                          1       3    3px               0.070000       0.000000
                                                         0.143687       0.012825
                                                         0.313471       0.142381
                                                         0.721783       0.396426
                                                         1.876046       0.544234
                                                         6.036200       0.508157
                                                        30.497239       0.384077
                          1       3    3py               0.070000       0.000000
                                                         0.143687       0.012825
                                                         0.313471       0.142381
                                                         0.721783       0.396426
                                                         1.876046       0.544234
                                                         6.036200       0.508157
                                                        30.497239       0.384077
                          1       3    3pz               0.070000       0.000000
                                                         0.143687       0.012825
                                                         0.313471       0.142381
                                                         0.721783       0.396426
                                                         1.876046       0.544234
                                                         6.036200       0.508157
                                                        30.497239       0.384077

                          1       4    4px               0.070000       0.076505
                                                         0.143687      -0.086104
                                                         0.313471       0.010230
                                                         0.721783       0.129894
                                                         1.876046       0.000000
                                                         6.036200       0.000000
                                                        30.497239       0.000000
                          1       4    4py               0.070000       0.076505
                                                         0.143687      -0.086104
                                                         0.313471       0.010230
                                                         0.721783       0.129894
                                                         1.876046       0.000000
                                                         6.036200       0.000000
                                                        30.497239       0.000000
                          1       4    4pz               0.070000       0.076505
                                                         0.143687      -0.086104
                                                         0.313471       0.010230
                                                         0.721783       0.129894
                                                         1.876046       0.000000
                                                         6.036200       0.000000
                                                        30.497239       0.000000

                          1       5    4dx2              0.070000       0.004316
                                                         0.143687       0.012639
                                                         0.313471       0.125057
                                                         0.721783       0.080411
                                                         1.876046       0.000000
                                                         6.036200       0.000000
                                                        30.497239       0.000000
                          1       5    4dxy              0.070000       0.007476
                                                         0.143687       0.021892
                                                         0.313471       0.216606
                                                         0.721783       0.139276
                                                         1.876046       0.000000
                                                         6.036200       0.000000
                                                        30.497239       0.000000
                          1       5    4dxz              0.070000       0.007476
                                                         0.143687       0.021892
                                                         0.313471       0.216606
                                                         0.721783       0.139276
                                                         1.876046       0.000000
                                                         6.036200       0.000000
                                                        30.497239       0.000000
                          1       5    4dy2              0.070000       0.004316
                                                         0.143687       0.012639
                                                         0.313471       0.125057
                                                         0.721783       0.080411
                                                         1.876046       0.000000
                                                         6.036200       0.000000
                                                        30.497239       0.000000
                          1       5    4dyz              0.070000       0.007476
                                                         0.143687       0.021892
                                                         0.313471       0.216606
                                                         0.721783       0.139276
                                                         1.876046       0.000000
                                                         6.036200       0.000000
                                                        30.497239       0.000000
                          1       5    4dz2              0.070000       0.004316
                                                         0.143687       0.012639
                                                         0.313471       0.125057
                                                         0.721783       0.080411
                                                         1.876046       0.000000
                                                         6.036200       0.000000
                                                        30.497239       0.000000

                          2       1    1s              742.737049       0.929185
                                                       136.180025       1.402437
                                                        38.098264       1.841991
                                                        13.087782       1.817278
                                                         5.082369       1.004768
                                                         2.093200       0.161650

     RI Auxiliary Basis Set             RI_aug-SZV-MOLOPT-ae_N_RI_048_s_p_d_f_g_

       Number of orbital shell sets:                                          14
       Number of orbital shells:                                              14
       Number of primitive Cartesian functions:                               14
       Number of Cartesian basis functions:                                   62
       Number of spherical basis functions:                                   48
       Norm type:                                                              2

       Normalised Cartesian orbitals:

                        Set   Shell   Orbital            Exponent    Coefficient

                          1       1    1s                0.182132       0.198701

                          2       1    7px               0.213594       0.206979
                          2       1    7py               0.213594       0.206979
                          2       1    7pz               0.213594       0.206979

                          3       1   10dx2              0.381125       0.304282
                          3       1   10dxy              0.381125       0.527033
                          3       1   10dxz              0.381125       0.527033
                          3       1   10dy2              0.381125       0.304282
                          3       1   10dyz              0.381125       0.527033
                          3       1   10dz2              0.381125       0.304282

                          4       1    2s                0.433905       0.381027

                          5       1   12fx3              0.524446       0.344573
                          5       1   12fx2y             0.524446       0.770488
                          5       1   12fx2z             0.524446       0.770488
                          5       1   12fxy2             0.524446       0.770488
                          5       1   12fxyz             0.524446       1.334524
                          5       1   12fxz2             0.524446       0.770488
                          5       1   12fy3              0.524446       0.344573
                          5       1   12fy2z             0.524446       0.770488
                          5       1   12fyz2             0.524446       0.770488
                          5       1   12fz3              0.524446       0.344573

                          6       1    8px               0.915857       1.277099
                          6       1    8py               0.915857       1.277099
                          6       1    8pz               0.915857       1.277099

                          7       1   14gx4              1.217666       1.912659
                          7       1   14gx3y             1.217666       5.060419
                          7       1   14gx3z             1.217666       5.060419
                          7       1   14gx2y2            1.217666       6.532973
                          7       1   14gx2yz            1.217666      11.315442
                          7       1   14gx2z2            1.217666       6.532973
                          7       1   14gxy3             1.217666       5.060419
                          7       1   14gxy2z            1.217666      11.315442
                          7       1   14gxyz2            1.217666      11.315442
                          7       1   14gxz3             1.217666       5.060419
                          7       1   14gy4              1.217666       1.912659
                          7       1   14gy3z             1.217666       5.060419
                          7       1   14gy2z2            1.217666       6.532973
                          7       1   14gyz3             1.217666       5.060419
                          7       1   14gz4              1.217666       1.912659

                          8       1   11dx2              1.581488       3.670921
                          8       1   11dxy              1.581488       6.358221
                          8       1   11dxz              1.581488       6.358221
                          8       1   11dy2              1.581488       3.670921
                          8       1   11dyz              1.581488       6.358221
                          8       1   11dz2              1.581488       3.670921

                          9       1    3s                1.620693       1.023730

                         10       1   13fx3              2.677157      13.496481
                         10       1   13fx2y             2.677157      30.179050
                         10       1   13fx2z             2.677157      30.179050
                         10       1   13fxy2             2.677157      30.179050
                         10       1   13fxyz             2.677157      52.271648
                         10       1   13fxz2             2.677157      30.179050
                         10       1   13fy3              2.677157      13.496481
                         10       1   13fy2z             2.677157      30.179050
                         10       1   13fyz2             2.677157      30.179050
                         10       1   13fz3              2.677157      13.496481

                         11       1    4s                5.999661       2.732154

                         12       1    9px               9.284861      23.102519
                         12       1    9py               9.284861      23.102519
                         12       1    9pz               9.284861      23.102519

                         13       1    5s               22.224963       7.295262

                         14       1    6s               82.329769      19.479498

       Atomic covalent radius [Angstrom]:                                  0.770

       Atomic van der Waals radius [Angstrom]:                             1.700

     The atoms of this atomic kind are PAW atoms (GAPW):
       Hard Gaussian function radius:                                      1.512
       Rho0 radius:                                                        1.512
       Maximum GTO radius used for PAW projector construction:            24.566

     GAPW Soft Basis Set                                  aug-SZV-MOLOPT-ae_soft

       Number of orbital shell sets:                                           2
       Number of orbital shells:                                               6
       Number of primitive Cartesian functions:                                6
       Number of Cartesian basis functions:                                   15
       Number of spherical basis functions:                                   14
       Norm type:                                                              2

       Normalised Cartesian orbitals:

                        Set   Shell   Orbital            Exponent    Coefficient

                          1       1    2s                0.070000       0.000000
                                                         0.143687       0.040037
                                                         0.313471       0.177689
                                                         0.721783       0.139661
                                                         1.876046      -0.038599

                          1       2    3s                0.070000      -0.142268
                                                         0.143687       0.288819
                                                         0.313471       0.010360
                                                         0.721783       0.175994
                                                         1.876046       0.000000

                          1       3    3px               0.070000       0.000000
                                                         0.143687       0.012825
                                                         0.313471       0.142381
                                                         0.721783       0.396426
                                                         1.876046       0.544234
                          1       3    3py               0.070000       0.000000
                                                         0.143687       0.012825
                                                         0.313471       0.142381
                                                         0.721783       0.396426
                                                         1.876046       0.544234
                          1       3    3pz               0.070000       0.000000
                                                         0.143687       0.012825
                                                         0.313471       0.142381
                                                         0.721783       0.396426
                                                         1.876046       0.544234

                          1       4    4px               0.070000       0.076505
                                                         0.143687      -0.086104
                                                         0.313471       0.010230
                                                         0.721783       0.129894
                                                         1.876046       0.000000
                          1       4    4py               0.070000       0.076505
                                                         0.143687      -0.086104
                                                         0.313471       0.010230
                                                         0.721783       0.129894
                                                         1.876046       0.000000
                          1       4    4pz               0.070000       0.076505
                                                         0.143687      -0.086104
                                                         0.313471       0.010230
                                                         0.721783       0.129894
                                                         1.876046       0.000000

                          1       5    4dx2              0.070000       0.004316
                                                         0.143687       0.012639
                                                         0.313471       0.125057
                                                         0.721783       0.080411
                                                         1.876046       0.000000
                          1       5    4dxy              0.070000       0.007476
                                                         0.143687       0.021892
                                                         0.313471       0.216606
                                                         0.721783       0.139276
                                                         1.876046       0.000000
                          1       5    4dxz              0.070000       0.007476
                                                         0.143687       0.021892
                                                         0.313471       0.216606
                                                         0.721783       0.139276
                                                         1.876046       0.000000
                          1       5    4dy2              0.070000       0.004316
                                                         0.143687       0.012639
                                                         0.313471       0.125057
                                                         0.721783       0.080411
                                                         1.876046       0.000000
                          1       5    4dyz              0.070000       0.007476
                                                         0.143687       0.021892
                                                         0.313471       0.216606
                                                         0.721783       0.139276
                                                         1.876046       0.000000
                          1       5    4dz2              0.070000       0.004316
                                                         0.143687       0.012639
                                                         0.313471       0.125057
                                                         0.721783       0.080411
                                                         1.876046       0.000000

                          2       1    1s                2.093200       0.161650

     AE Potential information for                                            ALL

       Description:                                       All-electron potential
                                          Krack, Parrinello, PCCP 2, 2105 (2000)

       Gaussian exponent of the core charge distribution:               4.109048
       Electronic configuration (s p d ...):                           4   2   0

  2. Atomic kind: Cl                                    Number of atoms:       8

     Orbital Basis Set                                         aug-SZV-MOLOPT-ae

       Number of orbital shell sets:                                           3
       Number of orbital shells:                                               8
       Number of primitive Cartesian functions:                               19
       Number of Cartesian basis functions:                                   19
       Number of spherical basis functions:                                   18
       Norm type:                                                              2

       Normalised Cartesian orbitals:

                        Set   Shell   Orbital            Exponent    Coefficient

                          1       1    1s                0.077000       0.000000
                                                         0.155732       0.048775
                                                         0.302177       0.213641
                                                         0.610646       0.074372
                                                         1.364210      -0.160589
                                                         3.637791      -0.133295
                                                        13.583529      -0.040055

                          1       2    2s                0.077000       0.113098
                                                         0.155732      -0.001418
                                                         0.302177      -0.032953
                                                         0.610646       0.000940
                                                         1.364210      -0.000650
                                                         3.637791      -0.006480
                                                        13.583529       0.000000

                          1       3    2px               0.077000       0.000000
                                                         0.155732       0.014765
                                                         0.302177       0.156150
                                                         0.610646       0.318942
                                                         1.364210       0.160173
                                                         3.637791      -0.130999
                                                        13.583529      -0.265378
                          1       3    2py               0.077000       0.000000
                                                         0.155732       0.014765
                                                         0.302177       0.156150
                                                         0.610646       0.318942
                                                         1.364210       0.160173
                                                         3.637791      -0.130999
                                                        13.583529      -0.265378
                          1       3    2pz               0.077000       0.000000
                                                         0.155732       0.014765
                                                         0.302177       0.156150
                                                         0.610646       0.318942
                                                         1.364210       0.160173
                                                         3.637791      -0.130999
                                                        13.583529      -0.265378

                          1       4    3px               0.077000       0.044533
                                                         0.155732       0.031887
                                                         0.302177       0.011087
                                                         0.610646      -0.025806
                                                         1.364210       0.119111
                                                         3.637791       0.324938
                                                        13.583529       0.000000
                          1       4    3py               0.077000       0.044533
                                                         0.155732       0.031887
                                                         0.302177       0.011087
                                                         0.610646      -0.025806
                                                         1.364210       0.119111
                                                         3.637791       0.324938
                                                        13.583529       0.000000
                          1       4    3pz               0.077000       0.044533
                                                         0.155732       0.031887
                                                         0.302177       0.011087
                                                         0.610646      -0.025806
                                                         1.364210       0.119111
                                                         3.637791       0.324938
                                                        13.583529       0.000000

                          1       5    3dx2              0.077000       0.003672
                                                         0.155732       0.001893
                                                         0.302177       0.117944
                                                         0.610646       0.097225
                                                         1.364210       0.782555
                                                         3.637791       0.872236
                                                        13.583529       0.000000
                          1       5    3dxy              0.077000       0.006359
                                                         0.155732       0.003279
                                                         0.302177       0.204285
                                                         0.610646       0.168398
                                                         1.364210       1.355425
                                                         3.637791       1.510758
                                                        13.583529       0.000000
                          1       5    3dxz              0.077000       0.006359
                                                         0.155732       0.003279
                                                         0.302177       0.204285
                                                         0.610646       0.168398
                                                         1.364210       1.355425
                                                         3.637791       1.510758
                                                        13.583529       0.000000
                          1       5    3dy2              0.077000       0.003672
                                                         0.155732       0.001893
                                                         0.302177       0.117944
                                                         0.610646       0.097225
                                                         1.364210       0.782555
                                                         3.637791       0.872236
                                                        13.583529       0.000000
                          1       5    3dyz              0.077000       0.006359
                                                         0.155732       0.003279
                                                         0.302177       0.204285
                                                         0.610646       0.168398
                                                         1.364210       1.355425
                                                         3.637791       1.510758
                                                        13.583529       0.000000
                          1       5    3dz2              0.077000       0.003672
                                                         0.155732       0.001893
                                                         0.302177       0.117944
                                                         0.610646       0.097225
                                                         1.364210       0.782555
                                                         3.637791       0.872236
                                                        13.583529       0.000000

                          2       1    1s              403.972966      -0.851102
                                                        79.956793      -0.895515
                                                        24.850512      -0.268003
                                                         9.560888       0.969714
                                                         4.152300       1.233756
                                                         1.903303       0.277989

                          2       2    2px             403.972966       9.705843
                                                        79.956793      12.841416
                                                        24.850512      13.753103
                                                         9.560888      10.017907
                                                         4.152300       3.598052
                                                         1.903303       0.324102
                          2       2    2py             403.972966       9.705843
                                                        79.956793      12.841416
                                                        24.850512      13.753103
                                                         9.560888      10.017907
                                                         4.152300       3.598052
                                                         1.903303       0.324102
                          2       2    2pz             403.972966       9.705843
                                                        79.956793      12.841416
                                                        24.850512      13.753103
                                                         9.560888      10.017907
                                                         4.152300       3.598052
                                                         1.903303       0.324102

                          3       1    1s             6236.545525       4.583362
                                                      1143.463795       6.917755
                                                       319.899964       9.085929
                                                       109.894271       8.964028
                                                        42.675161       4.956187
                                                        17.575988       0.797366

     RI Auxiliary Basis Set             RI_aug-SZV-MOLOPT-ae_N_RI_112_s_p_d_f_g_

       Number of orbital shell sets:                                          24
       Number of orbital shells:                                              24
       Number of primitive Cartesian functions:                               24
       Number of Cartesian basis functions:                                  167
       Number of spherical basis functions:                                  112
       Norm type:                                                              2

       Normalised Cartesian orbitals:

                        Set   Shell   Orbital            Exponent    Coefficient

                          1       1   20gx4              0.279015       0.033259
                          1       1   20gx3y             0.279015       0.087996
                          1       1   20gx3z             0.279015       0.087996
                          1       1   20gx2y2            0.279015       0.113602
                          1       1   20gx2yz            0.279015       0.196764
                          1       1   20gx2z2            0.279015       0.113602
                          1       1   20gxy3             0.279015       0.087996
                          1       1   20gxy2z            0.279015       0.196764
                          1       1   20gxyz2            0.279015       0.196764
                          1       1   20gxz3             0.279015       0.087996
                          1       1   20gy4              0.279015       0.033259
                          1       1   20gy3z             0.279015       0.087996
                          1       1   20gy2z2            0.279015       0.113602
                          1       1   20gyz3             0.279015       0.087996
                          1       1   20gz4              0.279015       0.033259

                          2       1    8px               0.330765       0.357552
                          2       1    8py               0.330765       0.357552
                          2       1    8pz               0.330765       0.357552

                          3       1    1s                0.339703       0.317128

                          4       1   14dx2              0.562661       0.601646
                          4       1   14dxy              0.562661       1.042081
                          4       1   14dxz              0.562661       1.042081
                          4       1   14dy2              0.562661       0.601646
                          4       1   14dyz              0.562661       1.042081
                          4       1   14dz2              0.562661       0.601646

                          5       1   17fx3              0.671109       0.600120
                          5       1   17fx2y             0.671109       1.341909
                          5       1   17fx2z             0.671109       1.341909
                          5       1   17fxy2             0.671109       1.341909
                          5       1   17fxyz             0.671109       2.324255
                          5       1   17fxz2             0.671109       1.341909
                          5       1   17fy3              0.671109       0.600120
                          5       1   17fy2z             0.671109       1.341909
                          5       1   17fyz2             0.671109       1.341909
                          5       1   17fz3              0.671109       0.600120

                          6       1    2s                0.711571       0.552172

                          7       1    9px               0.728662       0.959616
                          7       1    9py               0.728662       0.959616
                          7       1    9pz               0.728662       0.959616

                          8       1   21gx4              1.066208       1.327398
                          8       1   21gx3y             1.066208       3.511964
                          8       1   21gx3z             1.066208       3.511964
                          8       1   21gx2y2            1.066208       4.533926
                          8       1   21gx2yz            1.066208       7.852990
                          8       1   21gx2z2            1.066208       4.533926
                          8       1   21gxy3             1.066208       3.511964
                          8       1   21gxy2z            1.066208       7.852990
                          8       1   21gxyz2            1.066208       7.852990
                          8       1   21gxz3             1.066208       3.511964
                          8       1   21gy4              1.066208       1.327398
                          8       1   21gy3z             1.066208       3.511964
                          8       1   21gy2z2            1.066208       4.533926
                          8       1   21gyz3             1.066208       3.511964
                          8       1   21gz4              1.066208       1.327398

                          9       1   15dx2              1.149113       2.099155
                          9       1   15dxy              1.149113       3.635843
                          9       1   15dxz              1.149113       3.635843
                          9       1   15dy2              1.149113       2.099155
                          9       1   15dyz              1.149113       3.635843
                          9       1   15dz2              1.149113       2.099155

                         10       1   18fx3              1.633659       4.441887
                         10       1   18fx2y             1.633659       9.932362
                         10       1   18fx2z             1.633659       9.932362
                         10       1   18fxy2             1.633659       9.932362
                         10       1   18fxyz             1.633659      17.203356
                         10       1   18fxz2             1.633659       9.932362
                         10       1   18fy3              1.633659       4.441887
                         10       1   18fy2z             1.633659       9.932362
                         10       1   18fyz2             1.633659       9.932362
                         10       1   18fz3              1.633659       4.441887

                         11       1   23hx5              1.666224       3.899222
                         11       1   23hx4y             1.666224      11.697667
                         11       1   23hx4z             1.666224      11.697667
                         11       1   23hx3y2            1.666224      17.868481
                         11       1   23hx3yz            1.666224      30.949117
                         11       1   23hx3z2            1.666224      17.868481
                         11       1   23hx2y3            1.666224      17.868481
                         11       1   23hx2y2z           1.666224      39.955139
                         11       1   23hx2yz2           1.666224      39.955139
                         11       1   23hx2z3            1.666224      17.868481
                         11       1   23hxy4             1.666224      11.697667
                         11       1   23hxy3z            1.666224      30.949117
                         11       1   23hxy2z2           1.666224      39.955139
                         11       1   23hxyz3            1.666224      30.949117
                         11       1   23hxz4             1.666224      11.697667
                         11       1   23hy5              1.666224       3.899222
                         11       1   23hy4z             1.666224      11.697667
                         11       1   23hy3z2            1.666224      17.868481
                         11       1   23hy2z3            1.666224      17.868481
                         11       1   23hyz4             1.666224      11.697667
                         11       1   23hz5              1.666224       3.899222

                         12       1   24ix6              1.924248       5.207825
                         12       1   24ix5y             1.924248      17.272401
                         12       1   24ix5z             1.924248      17.272401
                         12       1   24ix4y2            1.924248      29.916676
                         12       1   24ix4yz            1.924248      51.817204
                         12       1   24ix4z2            1.924248      29.916676
                         12       1   24ix3y3            1.924248      35.397889
                         12       1   24ix3y2z           1.924248      79.152086
                         12       1   24ix3yz2           1.924248      79.152086
                         12       1   24ix3z3            1.924248      35.397889
                         12       1   24ix2y4            1.924248      29.916676
                         12       1   24ix2y3z           1.924248      79.152086
                         12       1   24ix2y2z2          1.924248     102.184904
                         12       1   24ix2yz3           1.924248      79.152086
                         12       1   24ix2z4            1.924248      29.916676
                         12       1   24ixy5             1.924248      17.272401
                         12       1   24ixy4z            1.924248      51.817204
                         12       1   24ixy3z2           1.924248      79.152086
                         12       1   24ixy2z3           1.924248      79.152086
                         12       1   24ixyz4            1.924248      51.817204
                         12       1   24ixz5             1.924248      17.272401
                         12       1   24iy6              1.924248       5.207825
                         12       1   24iy5z             1.924248      17.272401
                         12       1   24iy4z2            1.924248      29.916676
                         12       1   24iy3z3            1.924248      35.397889
                         12       1   24iy2z4            1.924248      29.916676
                         12       1   24iyz5             1.924248      17.272401
                         12       1   24iz6              1.924248       5.207825

                         13       1   22gx4              2.220982       9.986982
                         13       1   22gx3y             2.220982      26.423072
                         13       1   22gx3z             2.220982      26.423072
                         13       1   22gx2y2            2.220982      34.112039
                         13       1   22gx2yz            2.220982      59.083785
                         13       1   22gx2z2            2.220982      34.112039
                         13       1   22gxy3             2.220982      26.423072
                         13       1   22gxy2z            2.220982      59.083785
                         13       1   22gxyz2            2.220982      59.083785
                         13       1   22gxz3             2.220982      26.423072
                         13       1   22gy4              2.220982       9.986982
                         13       1   22gy3z             2.220982      26.423072
                         13       1   22gy2z2            2.220982      34.112039
                         13       1   22gyz3             2.220982      26.423072
                         13       1   22gz4              2.220982       9.986982

                         14       1    3s                2.450225       1.395772

                         15       1   10px               3.102999       5.870393
                         15       1   10py               3.102999       5.870393
                         15       1   10pz               3.102999       5.870393

                         16       1   19fx3              7.124016     122.063406
                         16       1   19fx2y             7.124016     272.942072
                         16       1   19fx2z             7.124016     272.942072
                         16       1   19fxy2             7.124016     272.942072
                         16       1   19fxyz             7.124016     472.749537
                         16       1   19fxz2             7.124016     272.942072
                         16       1   19fy3              7.124016     122.063406
                         16       1   19fy2z             7.124016     272.942072
                         16       1   19fyz2             7.124016     272.942072
                         16       1   19fz3              7.124016     122.063406

                         17       1    4s                8.846809       3.655948

                         18       1   11px              11.089446      28.845456
                         18       1   11py              11.089446      28.845456
                         18       1   11pz              11.089446      28.845456

                         19       1   16dx2             26.850040     521.270449
                         19       1   16dxy             26.850040     902.866903
                         19       1   16dxz             26.850040     902.866903
                         19       1   16dy2             26.850040     521.270449
                         19       1   16dyz             26.850040     902.866903
                         19       1   16dz2             26.850040     521.270449

                         20       1    5s               32.149471       9.622556

                         21       1   12px              38.748652     137.803687
                         21       1   12py              38.748652     137.803687
                         21       1   12pz              38.748652     137.803687

                         22       1    6s              116.893242      25.336822

                         23       1   13px             135.032822     656.129050
                         23       1   13py             135.032822     656.129050
                         23       1   13pz             135.032822     656.129050

                         24       1    7s              425.072226      66.720169

       Atomic covalent radius [Angstrom]:                                  0.990

       Atomic van der Waals radius [Angstrom]:                             1.750

     The atoms of this atomic kind are PAW atoms (GAPW):
       Hard Gaussian function radius:                                      1.512
       Rho0 radius:                                                        1.512
       Maximum GTO radius used for PAW projector construction:            24.566

     GAPW Soft Basis Set                                  aug-SZV-MOLOPT-ae_soft

       Number of orbital shell sets:                                           3
       Number of orbital shells:                                               8
       Number of primitive Cartesian functions:                                8
       Number of Cartesian basis functions:                                   19
       Number of spherical basis functions:                                   18
       Norm type:                                                              2

       Normalised Cartesian orbitals:

                        Set   Shell   Orbital            Exponent    Coefficient

                          1       1    1s                0.077000       0.000000
                                                         0.155732       0.048775
                                                         0.302177       0.213641
                                                         0.610646       0.074372
                                                         1.364210      -0.160589
                                                         3.637791      -0.133295

                          1       2    2s                0.077000       0.113098
                                                         0.155732      -0.001418
                                                         0.302177      -0.032953
                                                         0.610646       0.000940
                                                         1.364210      -0.000650
                                                         3.637791      -0.006480

                          1       3    2px               0.077000       0.000000
                                                         0.155732       0.014765
                                                         0.302177       0.156150
                                                         0.610646       0.318942
                                                         1.364210       0.160173
                                                         3.637791      -0.130999
                          1       3    2py               0.077000       0.000000
                                                         0.155732       0.014765
                                                         0.302177       0.156150
                                                         0.610646       0.318942
                                                         1.364210       0.160173
                                                         3.637791      -0.130999
                          1       3    2pz               0.077000       0.000000
                                                         0.155732       0.014765
                                                         0.302177       0.156150
                                                         0.610646       0.318942
                                                         1.364210       0.160173
                                                         3.637791      -0.130999

                          1       4    3px               0.077000       0.044533
                                                         0.155732       0.031887
                                                         0.302177       0.011087
                                                         0.610646      -0.025806
                                                         1.364210       0.119111
                                                         3.637791       0.324938
                          1       4    3py               0.077000       0.044533
                                                         0.155732       0.031887
                                                         0.302177       0.011087
                                                         0.610646      -0.025806
                                                         1.364210       0.119111
                                                         3.637791       0.324938
                          1       4    3pz               0.077000       0.044533
                                                         0.155732       0.031887
                                                         0.302177       0.011087
                                                         0.610646      -0.025806
                                                         1.364210       0.119111
                                                         3.637791       0.324938

                          1       5    3dx2              0.077000       0.003672
                                                         0.155732       0.001893
                                                         0.302177       0.117944
                                                         0.610646       0.097225
                                                         1.364210       0.782555
                                                         3.637791       0.872236
                          1       5    3dxy              0.077000       0.006359
                                                         0.155732       0.003279
                                                         0.302177       0.204285
                                                         0.610646       0.168398
                                                         1.364210       1.355425
                                                         3.637791       1.510758
                          1       5    3dxz              0.077000       0.006359
                                                         0.155732       0.003279
                                                         0.302177       0.204285
                                                         0.610646       0.168398
                                                         1.364210       1.355425
                                                         3.637791       1.510758
                          1       5    3dy2              0.077000       0.003672
                                                         0.155732       0.001893
                                                         0.302177       0.117944
                                                         0.610646       0.097225
                                                         1.364210       0.782555
                                                         3.637791       0.872236
                          1       5    3dyz              0.077000       0.006359
                                                         0.155732       0.003279
                                                         0.302177       0.204285
                                                         0.610646       0.168398
                                                         1.364210       1.355425
                                                         3.637791       1.510758
                          1       5    3dz2              0.077000       0.003672
                                                         0.155732       0.001893
                                                         0.302177       0.117944
                                                         0.610646       0.097225
                                                         1.364210       0.782555
                                                         3.637791       0.872236

                          2       1    1s                4.152300       0.000000
                                                         1.903303       0.277989

                          2       2    2px               4.152300       3.598052
                                                         1.903303       0.324102
                          2       2    2py               4.152300       3.598052
                                                         1.903303       0.324102
                          2       2    2pz               4.152300       3.598052
                                                         1.903303       0.324102

                          3       1    1s         

     AE Potential information for                                            ALL

       Description:                                       All-electron potential
                                          Krack, Parrinello, PCCP 2, 2105 (2000)

       Gaussian exponent of the core charge distribution:               2.974420
       Electronic configuration (s p d ...):                           6  11   0


 MOLECULE KIND INFORMATION


 All atoms are their own molecule, skipping detailed information


 TOTAL NUMBERS AND MAXIMUM NUMBERS

  Total number of            - Atomic kinds:                                   2
                             - Atoms:                                         16
                             - Shell sets:                                    40
                             - Shells:                                       112
                             - Primitive Cartesian functions:                256
                             - Cartesian basis functions:                    272
                             - Spherical basis functions:                    256

  Maximum angular momentum of the orbital basis functions:                     2


 MODULE QUICKSTEP: ATOMIC COORDINATES IN ANGSTROM

   Atom Kind Element         X             Y             Z       Z(eff)     Mass
      1    1 C     6     13.660468     16.153072     15.101680   6.0000  12.0107
      2    2 Cl   17     13.269844     13.507725     14.659243  17.0000  35.4530
      3    2 Cl   17     12.024222     16.379275     14.632316  17.0000  35.4530
      4    2 Cl   17     13.770050     18.833911     15.461749  17.0000  35.4530
      5    2 Cl   17     17.433792     11.166089     14.488952  17.0000  35.4530
      6    2 Cl   17     16.917369     13.593272     12.977996  17.0000  35.4530
      7    1 C     6     14.223234     14.867395     15.115473   6.0000  12.0107
      8    1 C     6     14.448024     17.256957     15.474279   6.0000  12.0107
      9    1 C     6     15.788714     17.073939     15.857314   6.0000  12.0107
     10    1 C     6     16.334298     15.780818     15.864648   6.0000  12.0107
     11    1 C     6     15.561816     14.668035     15.492375   6.0000  12.0107
     12    1 C     6     16.140541     13.306630     15.521857   6.0000  12.0107
     13    1 C     6     16.759602     12.739938     14.467160   6.0000  12.0107
     14    2 Cl   17     16.748891     18.423577     16.310305  17.0000  35.4530
     15    2 Cl   17     17.975778     15.543917     16.328701  17.0000  35.4530
     16    2 Cl   17     15.977136     12.456369     17.022004  17.0000  35.4530



 SCF PARAMETERS         Density guess:                                    ATOMIC
                        --------------------------------------------------------
                        max_scf:                                             500
                        max_scf_history:                                       0
                        max_diis:                                              4
                        --------------------------------------------------------
                        eps_scf:                                        1.00E-06
                        eps_scf_history:                                0.00E+00
                        eps_diis:                                       1.00E-01
                        eps_eigval:                                     1.00E-05
                        --------------------------------------------------------
                        level_shift [a.u.]:                             0.000000
                        added MOs                                       164    0
                        --------------------------------------------------------
                        Mixing method:                            BROYDEN_MIXING
                                                charge density mixing in g-space
                        --------------------------------------------------------
                        No outer SCF

 PW_GRID| Information for grid number                                          1
 PW_GRID| Grid distributed over                                   192 processors
 PW_GRID| Real space group dimensions                                   192    1
 PW_GRID| the grid is blocked:                                                NO
 PW_GRID| Cutoff [a.u.]                                                    250.0
 PW_GRID| spherical cutoff:                                                   NO
 PW_GRID|   Bounds   1           -202     202                Points:         405
 PW_GRID|   Bounds   2           -202     202                Points:         405
 PW_GRID|   Bounds   3           -202     202                Points:         405
 PW_GRID| Volume element (a.u.^3)  0.2743E-02     Volume (a.u.^3)    182205.0337
 PW_GRID| Grid span                                                    FULLSPACE
 PW_GRID|   Distribution                         Average         Max         Min
 PW_GRID|   G-Vectors                           345990.2      346275      345870
 PW_GRID|   G-Rays                                 854.3         855         854
 PW_GRID|   Real Space Points                   345990.2      492075      328050

 PW_GRID| Information for grid number                                          2
 PW_GRID| Number of the reference grid                                         1
 PW_GRID| Grid distributed over                                   192 processors
 PW_GRID| Real space group dimensions                                   192    1
 PW_GRID| the grid is blocked:                                                NO
 PW_GRID| Cutoff [a.u.]                                                     83.3
 PW_GRID| spherical cutoff:                                                   NO
 PW_GRID|   Bounds   1           -120     119                Points:         240
 PW_GRID|   Bounds   2           -120     119                Points:         240
 PW_GRID|   Bounds   3           -120     119                Points:         240
 PW_GRID| Volume element (a.u.^3)  0.1318E-01     Volume (a.u.^3)    182205.0337
 PW_GRID| Grid span                                                    FULLSPACE
 PW_GRID|   Distribution                         Average         Max         Min
 PW_GRID|   G-Vectors                            72000.0       72240       71760
 PW_GRID|   G-Rays                                 300.0         301         299
 PW_GRID|   Real Space Points                    72000.0      115200       57600

 PW_GRID| Information for grid number                                          3
 PW_GRID| Number of the reference grid                                         1
 PW_GRID| Grid distributed over                                   192 processors
 PW_GRID| Real space group dimensions                                    12   16
 PW_GRID| the grid is blocked:                                                NO
 PW_GRID| Cutoff [a.u.]                                                     27.8
 PW_GRID| spherical cutoff:                                                   NO
 PW_GRID|   Bounds   1            -67      67                Points:         135
 PW_GRID|   Bounds   2            -67      67                Points:         135
 PW_GRID|   Bounds   3            -67      67                Points:         135
 PW_GRID| Volume element (a.u.^3)  0.7406E-01     Volume (a.u.^3)    182205.0337
 PW_GRID| Grid span                                                    FULLSPACE
 PW_GRID|   Distribution                         Average         Max         Min
 PW_GRID|   G-Vectors                            12814.5       12960       12690
 PW_GRID|   G-Rays                                  94.9          96          94
 PW_GRID|   Real Space Points                    12814.5       14580       11880

 PW_GRID| Information for grid number                                          4
[...]
 mp_alltoall_d54                     70 10.0    2.944    6.377    2.944    6.377
 transfer_rs2pw_250                 141 10.0    1.311    1.462    5.351    6.084
 gspace_mixing                       68  5.0    0.089    0.127    5.975    5.977
 mp_alltoall_d45                     71 10.0    4.910    5.744    4.910    5.744
 mp_sync                            785  9.4    3.461    5.581    3.461    5.581
 put_rho0_on_grid                    70  9.0    0.102    0.156    5.115    5.502
 integrate_vhg0_rspace               70  8.0    0.121    0.152    4.517    5.035
 mp_isend_dm3                      2812 11.5    1.944    4.207    1.944    4.207
 mp2_ri_gpw_compute_in                1  5.0    0.004    0.008    3.877    3.879
 mp2_ri_gpw_compute_in_loop           1  6.0    0.004    0.010    3.816    3.816
 mp_alltoall_d11v                  1360  9.5    2.483    3.688    2.483    3.688
 contract_B_L                         4  7.0    0.012    0.025    3.057    3.674
 mp_waitall_1                     67714 12.0    2.568    3.645    2.568    3.645
 fft_wrap_pw1pw2_90                 140 10.5    0.029    0.045    1.461    3.389
 mp2_eri_3c_integrate                 1  7.0    0.004    0.007    0.704    3.373
 integrate_set_3c                  3215  8.0    0.646    3.164    0.700    3.367
 mp_cart_create                     396 10.3    2.716    3.321    2.716    3.322
 dbt_pgrid_create_expert             84 10.8    0.001    0.018    2.695    3.299
 rpa_num_int_RPA_matrix_operati     100  7.0    0.001    0.006    3.016    3.022
 broyden_mixing                      68  6.0    2.774    2.872    2.900    2.931
 cp2k_distribution_to_z_slices       70  9.0    0.279    0.339    2.186    2.656
 calc_mat_Q                         100  8.0    0.000    0.000    2.579    2.607
 contract_S_to_Q                    100  9.0    0.001    0.001    2.568    2.599
 transfer_pw2rs_90                   70 12.0    0.234    0.294    1.802    2.573
 pw_poisson_rebuild                  70  9.0    0.000    0.000    2.222    2.241
 ps_wavelet_create                    1 10.0    0.000    0.000    2.222    2.241
 RS_z_slice_distribution              1 11.0    0.194    0.314    2.222    2.241
 mp_sum_dm                         3434  7.6    1.847    2.222    1.847    2.222
 transfer_rs2pw_90                   70  9.0    0.252    0.283    2.043    2.176
 calculate_vxc_atom                  70  8.0    0.021    0.374    1.942    1.942
 transfer_pw2rs_30                   70 12.0    0.309    0.361    1.556    1.862
 mp_max_i                           580  2.9    0.656    1.814    0.656    1.814
 Vh_1c_gg_integrals                  70  8.0    0.010    0.168    0.617    1.789
 pw_integral_ab_c1d_c1d_gs           70  9.0    0.200    0.231    0.716    1.702
 qs_scf_new_mos                      69  5.0    0.004    0.008    1.562    1.581
 xc_functional_eval                 345 10.9    0.001    0.002    0.802    1.503
 pbe_lda_eval                       345 11.9    0.802    1.503    0.802    1.503
 gaVxcgb_GC                         138  9.0    0.060    1.474    0.060    1.474
 rs_grid_zero                       352 11.2    1.000    1.347    1.000    1.347
 eigensolver_symm                    70  6.0    0.005    0.006    1.284    1.290
 pw_derive                          624 11.3    1.063    1.185    1.063    1.185
 pw_copy                           1045 10.6    0.993    1.132    0.993    1.132
 transfer_rs2pw_30                   70  9.0    0.395    0.456    0.995    1.117
 create_A                             1  8.0    0.003    0.009    0.976    1.006
 grid_integrate_task_list            70 10.0    0.094    0.972    0.094    0.972
 mp_sendrecv_dv                   26740 10.0    0.787    0.924    0.787    0.924
 rs_gather_matrices                  70 10.0    0.002    0.009    0.378    0.923
 pw_scatter_p                       764 12.1    0.833    0.916    0.833    0.916
 pw_gather_p                        697 11.8    0.777    0.911    0.777    0.911
 calculate_rho_atom                 140  9.0    0.292    0.905    0.292    0.905
 mp_sum_dv                        17740 11.0    0.730    0.873    0.730    0.873
 calculate_rho_atom_coeff            70  6.0    0.065    0.115    0.814    0.815
 create_B                             1  8.0    0.000    0.000    0.691    0.806
 compute_vec_Sigma_x_minus_vxc_       1  4.0    0.004    0.008    0.721    0.721
 calc_screening_functions             1 10.0    0.377    0.398    0.672    0.703
 cp_fm_cholesky_invert              101  8.0    0.668    0.689    0.668    0.689
 pw_poisson_set                      71  8.9    0.001    0.002    0.643    0.668
 pw_copy_to_array                   697 11.8    0.473    0.644    0.473    0.644
 cp_fm_syrk                           3  7.0    0.617    0.624    0.617    0.624
 powell_optimize                 371782 11.0    0.540    0.564    0.540    0.564
 fm_general_add_bse                   5 10.2    0.000    0.000    0.446    0.520
 qs_energies_init_hamiltonians        1  3.0    0.005    0.006    0.513    0.513
 build_core_hamiltonian_matrix        1  4.0    0.003    0.008    0.490    0.490
 update_ks_atom                      70  8.0    0.037    0.067    0.415    0.476
 overlap_condnum                      1  5.0    0.003    0.006    0.465    0.471
 init_scf_run                         1  3.0    0.005    0.008    0.461    0.461
 mp_bcast_dm                       2240  9.0    0.378    0.434    0.378    0.434
 scf_env_initial_rho_setup            1  4.0    0.001    0.002    0.428    0.428
 calc_pair_dist_radii                 1 10.0    0.175    0.180    0.419    0.425
 cp_fm_to_fm_submat_general         112 10.1    0.276    0.418    0.276    0.418
 pw_axpy                            695  9.3    0.349    0.409    0.349    0.409
 cp_fm_cholesky_decompose           102  9.0    0.388    0.406    0.388    0.406
 compute_Erpa_by_freq_int           100  8.0    0.001    0.007    0.396    0.398
 arnoldi_conjugate_gradient           5  6.0    0.009    0.011    0.382    0.382
 pw_copy_from_array                 764 12.1    0.290    0.363    0.290    0.363
 cp_fm_uplo_to_full                 179  8.4    0.280    0.359    0.280    0.359
 fft_wrap_pw1pw2_30                 140 10.5    0.004    0.005    0.255    0.353
 transfer_rs2pw_10                   70  9.0    0.118    0.162    0.305    0.349
 dbt_total                            8  8.0    0.000    0.000    0.337    0.337
 fm_general_add_bse_5_comm_buff       5 11.2    0.000    0.000    0.256    0.336
 communicate_buffer                   5 12.2    0.000    0.000    0.255    0.336
 dbt_contract                         4  9.0    0.000    0.000    0.315    0.322
 calculate_rho0_atom                140  9.0    0.296    0.315    0.296    0.315
 mp_alltoall_z11v                   280 13.5    0.216    0.306    0.216    0.306
 mp_isend_dv                      24876 11.7    0.120    0.288    0.120    0.288
 postprocess_bse                      1  9.0    0.000    0.000    0.265    0.278
 mp_irecv_dm3                      2812 11.5    0.072    0.275    0.072    0.275
 pw_zero                            416 10.3    0.243    0.272    0.243    0.272
 transfer_pw2rs_10                   70 12.0    0.082    0.097    0.246    0.271
 dbcsr_sym_matrix_vector_mult      2575  7.0    0.018    0.019    0.221    0.241
 dbt_tas_multiply                     8 11.5    0.000    0.000    0.228    0.228
 dbt_tas_total                        8 12.5    0.002    0.006    0.228    0.228
 mp_rank_compare                   1461 12.9    0.208    0.223    0.208    0.223
 mp2_main_alloc_hfx                   1  4.0    0.102    0.222    0.102    0.222
 get_oscillator_strengths             1 10.0    0.000    0.000    0.215    0.215
 mp_sum_i                            21  9.7    0.119    0.206    0.119    0.206
 restraint_control                    1  2.0    0.000    0.000    0.119    0.205
 abc_contract                      3215  9.0    0.054    0.203    0.054    0.203
 dbcsr_multiply_generic             130  8.1    0.004    0.004    0.182    0.192
 calculate_dm_sparse                 69  6.0    0.000    0.000    0.175    0.183
 cp_dbcsr_plus_fm_fm_t               69  7.0    0.001    0.001    0.174    0.183
 offload_free_buffer                 78  8.4    0.131    0.179    0.131    0.179
 cp_fm_redistribute_start            75  8.0    0.000    0.000    0.084    0.169
 xz_to_yz                           140 11.0    0.008    0.009    0.127    0.167
 write_mo_set_to_restart             69  5.0    0.001    0.109    0.079    0.166
 yz_to_xz                           140 14.0    0.010    0.012    0.106    0.162
 mp_bcast_b_src                     145  7.5    0.114    0.157    0.114    0.157
 copy_dbcsr_to_fm                   108  6.7    0.001    0.002    0.137    0.157
 create_qs_kind_set                   1  2.0    0.000    0.001    0.118    0.150
 read_qs_kind                         2  3.0    0.055    0.068    0.118    0.150
 qs_init_subsys                       1  2.0    0.038    0.040    0.145    0.146
 dbcsr_complete_redistribute        250  8.5    0.013    0.017    0.091    0.135
 mp_isend_im2                       517 12.9    0.029    0.131    0.029    0.131
 mp_irecv_dv                      24884 11.7    0.027    0.129    0.027    0.129
 dbt_tas_dbm                          8 13.5    0.000    0.000    0.128    0.128
 mp_alltoall_i22                    360  9.2    0.101    0.124    0.101    0.124
 dbt_tas_mm_1N                        8 14.5    0.000    0.000    0.101    0.121
 dbm_multiply                         8 15.5    0.101    0.121    0.101    0.121
 dbcsr_rep_row_to_rep_col_vec      2575  8.0    0.006    0.007    0.054    0.120
 fft_wrap_pw1pw2_10                 140 10.5    0.001    0.001    0.096    0.119
 create_integ_mat                     4  6.0    0.001    0.001    0.115    0.116
 array2fm                             4  7.0    0.000    0.000    0.105    0.112
 mult_B_with_W                        1  8.0    0.000    0.000    0.107    0.111
 mp_sum_l                          1002  6.2    0.093    0.110    0.093    0.110
 dbcsr_col_vec_to_rep_row          2575  8.0    0.008    0.009    0.071    0.109
 integrate_four_center_getP          70 10.0    0.017    0.020    0.100    0.105
 qs_env_setup                         1  3.0    0.002    0.002    0.102    0.103
 qs_env_rebuild_pw_env                2  3.5    0.000    0.000    0.098    0.100
 pw_env_rebuild                       1  5.0    0.007    0.008    0.098    0.099
 parser_read_line                 19417  4.0    0.003    0.004    0.063    0.099
 dbcsr_desymmetrize_deep            110  7.6    0.003    0.003    0.080    0.098
 mp_sum_iv                          179  9.9    0.040    0.098    0.040    0.098
 mp_waitall_2                        52 15.8    0.076    0.096    0.076    0.096
 dbt_copy                            12 10.0    0.000    0.000    0.082    0.096
 parser_read_line_low                26  5.0    0.002    0.016    0.060    0.096
 broadcast_input_information         26  6.0    0.008    0.009    0.058    0.094
 external_control                    70  5.0    0.001    0.090    0.092    0.093
 rs_scatter_matrices                 70  7.0    0.001    0.001    0.004    0.092
 dbcsr_add_d                       3917  7.0    0.002    0.002    0.016    0.089
 mp_isendrecv_dv                  53480 12.0    0.052    0.088    0.052    0.088
 scf_post_calculation_gpw             1  3.0    0.000    0.000    0.088    0.088
 write_available_results              1  4.0    0.003    0.006    0.087    0.087
 dbcsr_add_anytype                 3917  8.0    0.003    0.017    0.014    0.087
 write_mo_free_results                1  5.0    0.003    0.004    0.083    0.085
 pw_grid_setup                        4  6.0    0.001    0.001    0.082    0.083
 cp_fm_symm                          70  7.0    0.079    0.083    0.079    0.083
 pw_grid_setup_internal               4  7.0    0.001    0.002    0.081    0.082
 dbt_reshape                          8 11.5    0.007    0.009    0.068    0.081
 vxc_of_r_new                       276  9.0    0.000    0.006    0.003    0.081
 fm_general_add_bse_1_setup           5 11.2    0.057    0.079    0.057    0.079
 write_mo_set_low                     4  6.0    0.000    0.000    0.077    0.078
 cp_fm_write_unformatted              4  7.0    0.077    0.078    0.077    0.078
 scale_and_distribute               140 10.0    0.054    0.077    0.054    0.077
 multiply_cannon                    130  9.1    0.007    0.007    0.068    0.074
 integrate_four_center_load          70 10.0    0.001    0.013    0.050    0.073
 dbt_communicate_buffer               8 12.5    0.000    0.000    0.057    0.069
 mp_bcast_i_src                     104  7.0    0.031    0.067    0.031    0.067
 array2fm_fill                        4  8.0    0.003    0.004    0.029    0.064
 dbt_tas_estimate_result_nze          4 12.0    0.001    0.001    0.064    0.064
 copy_fm_to_dbcsr                   142  8.1    0.000    0.000    0.038    0.063
 make_m2s                           260  9.1    0.002    0.003    0.058    0.062
 mp_wait                            131  9.0    0.026    0.061    0.026    0.061
 dbcsr_finalize                    5266 10.5    0.004    0.016    0.018    0.061
 integrate_four_center_dist_KS       70 10.0    0.012    0.015    0.060    0.061
 hfx_load_balance                     1 11.0    0.003    0.007    0.050    0.061
 get_2c_integrals                     1  6.0    0.000    0.000    0.043    0.060
 mp_alltoall_i                       41 13.9    0.034    0.060    0.034    0.060
 Q_trace_and_add_unit_matrix        100  8.0    0.000    0.002    0.040    0.060
 multiply_cannon_loop               130 10.1    0.005    0.005    0.052    0.058
 array2fm_isendrecv                   4  8.0    0.001    0.001    0.029    0.056
 dbcsr_merge_all                   4574 11.2    0.007    0.052    0.011    0.055
 pw_grid_sort                         4  8.0    0.035    0.038    0.048    0.051
 dbt_remap                            8 10.0    0.002    0.002    0.051    0.051
 mp_bcast_dv                       2575  9.0    0.033    0.051    0.033    0.051
 fm_general_add_bse_2_comm_entr       5 11.2    0.000    0.000    0.024    0.049
 get_multipoles_mo                    1 10.0    0.002    0.003    0.037    0.049
 fm_general_add_bse_4_buf_from_       1 10.0    0.034    0.047    0.034    0.047
 make_images                        260 10.1    0.009    0.015    0.042    0.044
 dbt_tas_replicate                    8 13.5    0.008    0.012    0.039    0.044
 cube_transpose_2                   140 11.0    0.003    0.003    0.027    0.043
 hfx_load_balance_range               1 12.0    0.000    0.011    0.030    0.041
 pw_scale                           277  9.5    0.034    0.040    0.034    0.040
 hirshfeld_integration                1  6.0    0.001    0.008    0.040    0.040
 fm_general_add_bse_4_buf_from_       1 10.0    0.034    0.039    0.034    0.039
 dbt_distribution_new_expert         76 10.1    0.002    0.003    0.032    0.036
 calculate_hirshfeld_normalizat       1  6.0    0.001    0.008    0.035    0.036
 cp_fm_create                       211  7.4    0.024    0.035    0.024    0.035
 cube_transpose_1                   140 14.0    0.002    0.003    0.019    0.035
 fm_general_add_bse_6_buffer_to       1 10.0    0.015    0.034    0.015    0.034
 mp_maxloc_dv                      1521  1.0    0.032    0.032    0.032    0.032
 dbcsr_iterator_start             32615  8.8    0.018    0.025    0.022    0.032
 array2fm_info                        4  8.0    0.023    0.026    0.028    0.031
 xc_pw_smooth                        69 10.0    0.000    0.000    0.023    0.031
 multiply_cannon_multrec           1832 11.1    0.019    0.030    0.020    0.030
 mp_comm_split_direct                48 14.5    0.021    0.029    0.021    0.029
 calc_fm_mat_S_rpa                  100  9.0    0.010    0.029    0.010    0.029
 dbt_tas_communicate_buffer          18 15.8    0.001    0.001    0.022    0.029
 dbcsr_copy                       10940  7.6    0.015    0.017    0.027    0.029
 dbt_split_blocks_generic            20  8.8    0.010    0.012    0.027    0.028
 array2fm_waitall                     4  8.0    0.000    0.000    0.003    0.028
 dbcsr_create_new                 13210  8.9    0.021    0.022    0.025    0.028
 calculate_first_density_matrix       1  5.0    0.005    0.008    0.025    0.025
 truncate_BSE_matrices                1  8.0    0.000    0.000    0.023    0.025
 compute_2c_integrals                 1  7.0    0.000    0.000    0.019    0.024
 dbt_tas_distribution_new            96 11.8    0.014    0.015    0.024    0.024
 dbt_tas_replicate_communicate_       8 14.5    0.000    0.000    0.019    0.024
 cholesky_decomp                      1  7.0    0.000    0.000    0.008    0.024
 calculate_atomic_block_dm            1  6.0    0.006    0.011    0.020    0.023
 mixing_init                          1  5.0    0.020    0.022    0.023    0.023
 topology_control                     1  2.0    0.005    0.006    0.019    0.023
 mp_bcast_am_src                     26  7.0    0.018    0.021    0.018    0.022
 build_overlap_matrix_low             1  5.0    0.009    0.013    0.018    0.022
 dbt_nd_mp_comm                       8 11.0    0.000    0.000    0.008    0.022
 make_images_sizes                  260 11.1    0.000    0.000    0.017    0.022
 mp_cart_sub                        222  8.7    0.020    0.022    0.020    0.022
 mp_alltoall_i44                    260 12.1    0.016    0.022    0.016    0.022
 multiply_cannon_metrocomm3        1832 11.1    0.002    0.003    0.014    0.022
 hybrid_alltoall_any                370 11.0    0.007    0.009    0.011    0.020
 fm_general_add_bse_3_alloc_buf       5 11.2    0.017    0.020    0.017    0.020
 make_images_data                   260 11.1    0.002    0.002    0.010    0.020
 cp_fm_to_fm_matrix                  79  7.2    0.009    0.019    0.009    0.019
 dbcsr_iterator_stop              32615  8.8    0.012    0.016    0.015    0.019
 array2fm_buffer_send                 4  8.0    0.015    0.017    0.015    0.017
 ao_to_mo_and_store_B_mult_gw_1       7  7.0    0.000    0.000    0.014    0.017
 reshape_mm_small                     8 13.5    0.001    0.001    0.013    0.016
 compute_2c_integrals_loop_lm         1  8.0    0.002    0.003    0.008    0.016
 mp2_main_free_hfx                    1  4.0    0.007    0.016    0.007    0.016
 qs_env_update_s_mstruct              1  4.0    0.000    0.000    0.015    0.015
 dbm_reserve_blocks                  68 14.0    0.012    0.015    0.012    0.015
 create_fast_col_vec_access        5150  8.0    0.008    0.010    0.013    0.015
 dbcsr_dot                          139  8.0    0.001    0.001    0.010    0.015
 connectivity_control                 1  3.0    0.005    0.006    0.012    0.015
 sort_shells                          4  9.0    0.013    0.015    0.013    0.015
 dbt_tas_reshape                     10 14.0    0.000    0.000    0.011    0.015
 multiply_cannon_metrocomm1        1832 11.1    0.001    0.001    0.004    0.015
 mp2_eri_2c_integrate                 1  9.0    0.003    0.006    0.006    0.015
 -------------------------------------------------------------------------------

 The number of warnings for this run is : 1
 
 -------------------------------------------------------------------------------
  **** **** ******  **  PROGRAM ENDED AT                 2025-03-13 14:26:03.551
 ***** ** ***  *** **   PROGRAM RAN ON                                  n2cn0248
 **    ****   ******    PROGRAM RAN BY                                  metdyn02
 ***** **    ** ** **   PROGRAM PROCESS ID                                773882
  **** **  *******  **  PROGRAM STOPPED IN /scratch/hpc-prf-metdyn/metdyn02_Remi
                                           /10_MOL/05_MOL/aUKBqsEOTmq69kFe5R_nOg
                                           /5k_set_final_qzvp/FAYZOU/SZV/GW+BSE/
                                           RILIM
