SIRIUS 7.5.2, git hash: https://api.github.com/repos/electronic-structure/SIRIUS/git/ref/tags/v7.5.2
 DBCSR| CPU Multiplication driver                                           XSMM (U)
 DBCSR| Multrec recursion limit                                              512 (U)
 DBCSR| Multiplication stack size                                           1000 (D)
 DBCSR| Maximum elements for images                                    UNLIMITED (U)
 DBCSR| Multiplicative factor virtual images                                   1 (U)
 DBCSR| Use multiplication densification                                       T (D)
 DBCSR| Multiplication size stacks                                             3 (U)
 DBCSR| Use memory pool for CPU allocation                                     F (U)
 DBCSR| Number of 3D layers                                               SINGLE (U)
 DBCSR| Use MPI memory allocation                                              F (U)
 DBCSR| Use RMA algorithm                                                      F (U)
 DBCSR| Use Communication thread                                               T (U)
 DBCSR| Communication thread load                                             75 (D)
 DBCSR| MPI: My process id                                                     0
 DBCSR| MPI: Number of processes                                             192
 DBCSR| OMP: Current number of threads                                         4
 DBCSR| OMP: Max number of threads                                             4
 DBCSR| Split modifier for TAS multiplication algorithm                  1.0E+00 (U)


  **** **** ******  **  PROGRAM STARTED AT               2025-03-15 03:53:05.876
 ***** ** ***  *** **   PROGRAM STARTED ON                              n2cn0236
 **    ****   ******    PROGRAM STARTED BY                              metdyn02
 ***** **    ** ** **   PROGRAM PROCESS ID                               2965406
  **** **  *******  **  PROGRAM STARTED IN /scratch/hpc-prf-metdyn/metdyn02_Remi
                                           /10_MOL/05_MOL/aUKBqsEOTmq69kFe5R_nOg
                                           /5k_set_final_qzvp/VAVTOB/DZVP/GW+BSE
                                           /RILIM

 CP2K| version string:                 CP2K version 2025.1 (Development Version)
 CP2K| source code revision number:                                  git:f0c7327
 CP2K| cp2kflags: omp libint fftw3 libxc libgrpp elpa parallel scalapack mpi_f08
 CP2K|             cosma xsmm plumed2 spglib sirius libvori libbqb libvdwxc hdf5
 CP2K| is freely available from                            https://www.cp2k.org/
 CP2K| Program compiled at                          Wed Mar 12 18:25:30 CET 2025
 CP2K| Program compiled on                                              n2login1
 CP2K| Program compiled for                                                local
 CP2K| Data directory path    /opt/software/pc2/EB-SW/software/CP2K/2024.1-foss-
 CP2K| Input file name                                                    GW.inp

 GLOBAL| Force Environment number                                              1
 GLOBAL| Basis set file name            /scratch/hpc-prf-metdyn/metdyn02_Remi/BA
 GLOBAL| Potential file name            /pc2/groups/hpc-prf-metdyn/metdyn02_Remi
 GLOBAL| MM Potential file name                                     MM_POTENTIAL
 GLOBAL| Coordinate file name                                      __STD_INPUT__
 GLOBAL| Method name                                                        CP2K
 GLOBAL| Project name                                                       MoS2
 GLOBAL| Run type                                                         ENERGY
 GLOBAL| FFT library                                                       FFTW3
 GLOBAL| Diagonalization library                                            ELPA
 GLOBAL| DGEMM library                                                      BLAS
 GLOBAL| Minimum number of eigenvectors for ELPA usage                        16
 GLOBAL| Orthonormality check for eigenvectors                          DISABLED
 GLOBAL| Matrix multiplication library                                     COSMA
 GLOBAL| All-to-all communication in single precision                          F
 GLOBAL| FFTs using library dependent lengths                                  F
 GLOBAL| Grid backend                                                       AUTO
 GLOBAL| Global print level                                               MEDIUM
 GLOBAL| MPI I/O enabled                                                       T
 GLOBAL| Total number of message passing processes                           192
 GLOBAL| Number of threads for this process                                    4
 GLOBAL| This output is from process                                           0
 GLOBAL| OpenMP stack size per thread (OMP_STACKSIZE)                    default
 GLOBAL| CPU model name                          AMD EPYC 7763 64-Core Processor
 GLOBAL| CPUID                                                              1002

 MEMORY| system memory details [Kb]
 MEMORY|                        rank 0           min           max       average
 MEMORY| MemTotal            263899260     263899260     263899264     263899262
 MEMORY| MemFree             243711408     242365552     246207260     244011644
 MEMORY| Buffers                242656        106400        242656        171326
 MEMORY| Cached                6291464       5673592       7854484       6571052
 MEMORY| Slab                  2491264       1653728       2491264       2110323
 MEMORY| SReclaimable           766232        305496        766232        431790
 MEMORY| MemLikelyFree       251011760     250823696     252350524     251185814


 *** Fundamental physical constants (SI units) ***

 *** Literature: B. J. Mohr and B. N. Taylor,
 ***             CODATA recommended values of the fundamental physical
 ***             constants: 2006, Web Version 5.1
 ***             http://physics.nist.gov/constants

 Speed of light in vacuum [m/s]                             2.99792458000000E+08
 Magnetic constant or permeability of vacuum [N/A**2]       1.25663706143592E-06
 Electric constant or permittivity of vacuum [F/m]          8.85418781762039E-12
 Planck constant (h) [J*s]                                  6.62606896000000E-34
 Planck constant (h-bar) [J*s]                              1.05457162825177E-34
 Elementary charge [C]                                      1.60217648700000E-19
 Electron mass [kg]                                         9.10938215000000E-31
 Electron g factor [ ]                                     -2.00231930436220E+00
 Proton mass [kg]                                           1.67262163700000E-27
 Fine-structure constant                                    7.29735253760000E-03
 Rydberg constant [1/m]                                     1.09737315685270E+07
 Avogadro constant [1/mol]                                  6.02214179000000E+23
 Boltzmann constant [J/K]                                   1.38065040000000E-23
 Atomic mass unit [kg]                                      1.66053878200000E-27
 Bohr radius [m]                                            5.29177208590000E-11

 *** Conversion factors ***

 [u] -> [a.u.]                                              1.82288848426455E+03
 [Angstrom] -> [Bohr] = [a.u.]                              1.88972613288564E+00
 [a.u.] = [Bohr] -> [Angstrom]                              5.29177208590000E-01
 [a.u.] -> [s]                                              2.41888432650478E-17
 [a.u.] -> [fs]                                             2.41888432650478E-02
 [a.u.] -> [J]                                              4.35974393937059E-18
 [a.u.] -> [N]                                              8.23872205491840E-08
 [a.u.] -> [K]                                              3.15774647902944E+05
 [a.u.] -> [kJ/mol]                                         2.62549961709828E+03
 [a.u.] -> [kcal/mol]                                       6.27509468713739E+02
 [a.u.] -> [Pa]                                             2.94210107994716E+13
 [a.u.] -> [bar]                                            2.94210107994716E+08
 [a.u.] -> [atm]                                            2.90362800883016E+08
 [a.u.] -> [eV]                                             2.72113838565563E+01
 [a.u.] -> [Hz]                                             6.57968392072181E+15
 [a.u.] -> [1/cm] (wave numbers)                            2.19474631370540E+05
 [a.u./Bohr**2] -> [1/cm]                                   5.14048714338585E+03
 

 CELL_TOP| Volume [angstrom^3]:                                     27000.000000
 CELL_TOP| Vector a [angstrom    30.000     0.000     0.000   |a| =    30.000000
 CELL_TOP| Vector b [angstrom     0.000    30.000     0.000   |b| =    30.000000
 CELL_TOP| Vector c [angstrom     0.000     0.000    30.000   |c| =    30.000000
 CELL_TOP| Angle (b,c), alpha [degree]:                                90.000000
 CELL_TOP| Angle (a,c), beta  [degree]:                                90.000000
 CELL_TOP| Angle (a,b), gamma [degree]:                                90.000000
 CELL_TOP| Numerically orthorhombic:                                         YES
 CELL_TOP| Periodicity                                                      NONE

 GENERATE|  Preliminary Number of Bonds generated:                             0
 GENERATE|  Achieved consistency in connectivity generation.

 CELL| Volume [angstrom^3]:                                         27000.000000
 CELL| Vector a [angstrom]:      30.000     0.000     0.000   |a| =    30.000000
 CELL| Vector b [angstrom]:       0.000    30.000     0.000   |b| =    30.000000
 CELL| Vector c [angstrom]:       0.000     0.000    30.000   |c| =    30.000000
 CELL| Angle (b,c), alpha [degree]:                                    90.000000
 CELL| Angle (a,c), beta  [degree]:                                    90.000000
 CELL| Angle (a,b), gamma [degree]:                                    90.000000
 CELL| Numerically orthorhombic:                                             YES
 CELL| Periodicity                                                          NONE

 CELL_REF| Volume [angstrom^3]:                                     27000.000000
 CELL_REF| Vector a [angstrom    30.000     0.000     0.000   |a| =    30.000000
 CELL_REF| Vector b [angstrom     0.000    30.000     0.000   |b| =    30.000000
 CELL_REF| Vector c [angstrom     0.000     0.000    30.000   |c| =    30.000000
 CELL_REF| Angle (b,c), alpha [degree]:                                90.000000
 CELL_REF| Angle (a,c), beta  [degree]:                                90.000000
 CELL_REF| Angle (a,b), gamma [degree]:                                90.000000
 CELL_REF| Numerically orthorhombic:                                         YES
 CELL_REF| Periodicity                                                      NONE

 *******************************************************************************
 *******************************************************************************
 **                                                                           **
 **     #####                         ##              ##                      **
 **    ##   ##            ##          ##              ##                      **
 **   ##     ##                       ##            ######                    **
 **   ##     ##  ##   ##  ##   #####  ##  ##   ####   ##    #####    #####    **
 **   ##     ##  ##   ##  ##  ##      ## ##   ##      ##   ##   ##  ##   ##   **
 **   ##  ## ##  ##   ##  ##  ##      ####     ###    ##   ######   ######    **
 **    ##  ###   ##   ##  ##  ##      ## ##      ##   ##   ##       ##        **
 **     #######   #####   ##   #####  ##  ##  ####    ##    #####   ##        **
 **           ##                                                    ##        **
 **                                                                           **
 **                                                ... make the atoms dance   **
 **                                                                           **
 **            Copyright (C) by CP2K developers group (2000-2025)             **
 **                      J. Chem. Phys. 152, 194103 (2020)                    **
 **                                                                           **
 *******************************************************************************

 DFT| Spin restricted Kohn-Sham (RKS) calculation                            RKS
 DFT| Multiplicity                                                             1
 DFT| Number of spin states                                                    1
 DFT| Charge                                                                   0
 DFT| Self-interaction correction (SIC)                                       NO
 DFT| Cutoffs: density                                              1.000000E-10
 DFT|          gradient                                             1.000000E-10
 DFT|          tau                                                  1.000000E-10
 DFT|          cutoff_smoothing_range                               0.000000E+00
 DFT| XC density smoothing                                                  NONE
 DFT| XC derivatives                                                          PW

 FUNCTIONAL| PBE:
 FUNCTIONAL| J.P.Perdew, K.Burke, M.Ernzerhof, Phys. Rev. Letter, vol. 77, n 18,
 FUNCTIONAL|  pp. 3865-3868, (1996)sx=0.750sc=1.000{spin unpolarized}           


 QS| Method:                                                                GAPW
 QS| Density plane wave grid type                        NON-SPHERICAL FULLSPACE
 QS| Number of grid levels:                                                    4
 QS| Density cutoff [a.u.]:                                                250.0
 QS| Multi grid cutoff [a.u.]: 1) grid level                               250.0
 QS|                           2) grid level                                83.3
 QS|                           3) grid level                                27.8
 QS|                           4) grid level                                 9.3
 QS| Grid level progression factor:                                          3.0
 QS| Relative density cutoff [a.u.]:                                        50.0
 QS| Interaction thresholds: eps_pgf_orb:                                1.0E-12
 QS|                         eps_filter_matrix:                          0.0E+00
 QS|                         eps_core_charge:                            1.0E-14
 QS|                         eps_rho_gspace:                             1.0E-12
 QS|                         eps_rho_rspace:                             1.0E-12
 QS|                         eps_gvg_rspace:                             1.0E-06
 QS|                         eps_ppl:                                    1.0E-02
 QS|                         eps_ppnl:                                   1.0E-08
 QS| GAPW|      One center basis from orbital basis primitives
 QS| GAPW|                   eps_fit:                                    1.0E-04
 QS| GAPW|                   eps_iso:                                    1.0E-12
 QS| GAPW|                   eps_svd:                                    1.0E-08
 QS| GAPW|                   eps_cpc:                                    1.0E-12
 QS| GAPW|   atom-r-grid: quadrature:                                     GC_LOG
 QS| GAPW|      atom-s-grid:  max l :                                          6
 QS| GAPW|      max_l_rho0 :                                                   2


 ATOMIC KIND INFORMATION

  1. Atomic kind: N                                     Number of atoms:       5

     Orbital Basis Set                                        aug-DZVP-MOLOPT-ae

       Number of orbital shell sets:                                           2
       Number of orbital shells:                                              10
       Number of primitive Cartesian functions:                               12
       Number of Cartesian basis functions:                                   35
       Number of spherical basis functions:                                   30
       Norm type:                                                              2

       Normalised Cartesian orbitals:

                        Set   Shell   Orbital            Exponent    Coefficient

                          1       1    2s                0.060000      -0.096639
                                                         0.166384       0.037538
                                                         0.634073      -0.055669
                                                         2.325354       0.000000
                                                        12.268174       0.000000

                          1       2    3px               0.060000       0.000000
                                                         0.166384      -0.031930
                                                         0.634073      -0.492962
                                                         2.325354      -1.380142
                                                        12.268174      -2.349358
                          1       2    3py               0.060000       0.000000
                                                         0.166384      -0.031930
                                                         0.634073      -0.492962
                                                         2.325354      -1.380142
                                                        12.268174      -2.349358
                          1       2    3pz               0.060000       0.000000
                                                         0.166384      -0.031930
                                                         0.634073      -0.492962
                                                         2.325354      -1.380142
                                                        12.268174      -2.349358

                          1       3    4px               0.060000       0.000000
                                                         0.166384       0.169694
                                                         0.634073      -0.220766
                                                         2.325354      -0.809234
                                                        12.268174      -0.998521
                          1       3    4py               0.060000       0.000000
                                                         0.166384       0.169694
                                                         0.634073      -0.220766
                                                         2.325354      -0.809234
                                                        12.268174      -0.998521
                          1       3    4pz               0.060000       0.000000
                                                         0.166384       0.169694
                                                         0.634073      -0.220766
                                                         2.325354      -0.809234
                                                        12.268174      -0.998521

                          1       4    5px               0.060000       0.028594
                                                         0.166384       0.063224
                                                         0.634073      -0.046183
                                                         2.325354       0.000000
                                                        12.268174       0.000000
                          1       4    5py               0.060000       0.028594
                                                         0.166384       0.063224
                                                         0.634073      -0.046183
                                                         2.325354       0.000000
                                                        12.268174       0.000000
                          1       4    5pz               0.060000       0.028594
                                                         0.166384       0.063224
                                                         0.634073      -0.046183
                                                         2.325354       0.000000
                                                        12.268174       0.000000

                          1       5    4dx2              0.060000       0.000000
                                                         0.166384       0.019402
                                                         0.634073       0.555487
                                                         2.325354       1.255926
                                                        12.268174      -0.426175
                          1       5    4dxy              0.060000       0.000000
                                                         0.166384       0.033606
                                                         0.634073       0.962132
                                                         2.325354       2.175327
                                                        12.268174      -0.738157
                          1       5    4dxz              0.060000       0.000000
                                                         0.166384       0.033606
                                                         0.634073       0.962132
                                                         2.325354       2.175327
                                                        12.268174      -0.738157
                          1       5    4dy2              0.060000       0.000000
                                                         0.166384       0.019402
                                                         0.634073       0.555487
                                                         2.325354       1.255926
                                                        12.268174      -0.426175
                          1       5    4dyz              0.060000       0.000000
                                                         0.166384       0.033606
                                                         0.634073       0.962132
                                                         2.325354       2.175327
                                                        12.268174      -0.738157
                          1       5    4dz2              0.060000       0.000000
                                                         0.166384       0.019402
                                                         0.634073       0.555487
                                                         2.325354       1.255926
                                                        12.268174      -0.426175

                          1       6    5dx2              0.060000      -0.008089
                                                         0.166384      -0.027907
                                                         0.634073      -0.057221
                                                         2.325354       0.000000
                                                        12.268174       0.000000
                          1       6    5dxy              0.060000      -0.014011
                                                         0.166384      -0.048336
                                                         0.634073      -0.099109
                                                         2.325354       0.000000
                                                        12.268174       0.000000
                          1       6    5dxz              0.060000      -0.014011
                                                         0.166384      -0.048336
                                                         0.634073      -0.099109
                                                         2.325354       0.000000
                                                        12.268174       0.000000
                          1       6    5dy2              0.060000      -0.008089
                                                         0.166384      -0.027907
                                                         0.634073      -0.057221
                                                         2.325354       0.000000
                                                        12.268174       0.000000
                          1       6    5dyz              0.060000      -0.014011
                                                         0.166384      -0.048336
                                                         0.634073      -0.099109
                                                         2.325354       0.000000
                                                        12.268174       0.000000
                          1       6    5dz2              0.060000      -0.008089
                                                         0.166384      -0.027907
                                                         0.634073      -0.057221
                                                         2.325354       0.000000
                                                        12.268174       0.000000

                          1       7    5fx3              0.060000       0.000067
                                                         0.166384       0.012645
                                                         0.634073       0.328269
                                                         2.325354       1.687172
                                                        12.268174       0.000000
                          1       7    5fx2y             0.060000       0.000150
                                                         0.166384       0.028275
                                                         0.634073       0.734031
                                                         2.325354       3.772631
                                                        12.268174       0.000000
                          1       7    5fx2z             0.060000       0.000150
                                                         0.166384       0.028275
                                                         0.634073       0.734031
                                                         2.325354       3.772631
                                                        12.268174       0.000000
                          1       7    5fxy2             0.060000       0.000150
                                                         0.166384       0.028275
                                                         0.634073       0.734031
                                                         2.325354       3.772631
                                                        12.268174       0.000000
                          1       7    5fxyz             0.060000       0.000260
                                                         0.166384       0.048973
                                                         0.634073       1.271379
                                                         2.325354       6.534389
                                                        12.268174       0.000000
                          1       7    5fxz2             0.060000       0.000150
                                                         0.166384       0.028275
                                                         0.634073       0.734031
                                                         2.325354       3.772631
                                                        12.268174       0.000000
                          1       7    5fy3              0.060000       0.000067
                                                         0.166384       0.012645
                                                         0.634073       0.328269
                                                         2.325354       1.687172
                                                        12.268174       0.000000
                          1       7    5fy2z             0.060000       0.000150
                                                         0.166384       0.028275
                                                         0.634073       0.734031
                                                         2.325354       3.772631
                                                        12.268174       0.000000
                          1       7    5fyz2             0.060000       0.000150
                                                         0.166384       0.028275
                                                         0.634073       0.734031
                                                         2.325354       3.772631
                                                        12.268174       0.000000
                          1       7    5fz3              0.060000       0.000067
                                                         0.166384       0.012645
                                                         0.634073       0.328269
                                                         2.325354       1.687172
                                                        12.268174       0.000000

                          2       1    1s                0.191012      -0.002582
                                                         0.666629       0.012902
                                                         4.403487      -0.858326
                                                        14.651380      -2.749170
                                                        57.692026      -2.958222
                                                       257.997554      -1.897300
                                                      1713.054433      -1.166486

                          2       2    2s                0.191012       0.079194
                                                         0.666629       0.351708
                                                         4.403487       0.009155
                                                        14.651380       0.000424
                                                        57.692026       0.772862
                                                       257.997554      -0.458166
                                                      1713.054433       0.520658

                          2       3    3s                0.191012       0.300064
                                                         0.666629      -0.436823
                                                         4.403487      -0.072962
                                                        14.651380      -0.095292
                                                        57.692026      -1.262420
                                                       257.997554       0.741400
                                                      1713.054433      -0.270364

     RI Auxiliary Basis Set             RI_aug-DZVP-MOLOPT-ae_N_RI_089_s_p_d_f_g

       Number of orbital shell sets:                                          23
       Number of orbital shells:                                              23
       Number of primitive Cartesian functions:                               23
       Number of Cartesian basis functions:                                  115
       Number of spherical basis functions:                                   89
       Norm type:                                                              2

       Normalised Cartesian orbitals:

                        Set   Shell   Orbital            Exponent    Coefficient

                          1       1    8px               0.212834       0.206058
                          1       1    8py               0.212834       0.206058
                          1       1    8pz               0.212834       0.206058

                          2       1    1s                0.308364       0.294923

                          3       1   14dx2              0.364281       0.281141
                          3       1   14dxy              0.364281       0.486951
                          3       1   14dxz              0.364281       0.486951
                          3       1   14dy2              0.364281       0.281141
                          3       1   14dyz              0.364281       0.486951
                          3       1   14dz2              0.364281       0.281141

                          4       1   19fx3              0.368644       0.155891
                          4       1   19fx2y             0.368644       0.348582
                          4       1   19fx2z             0.368644       0.348582
                          4       1   19fxy2             0.368644       0.348582
                          4       1   19fxyz             0.368644       0.603762
                          4       1   19fxz2             0.368644       0.348582
                          4       1   19fy3              0.368644       0.155891
                          4       1   19fy2z             0.368644       0.348582
                          4       1   19fyz2             0.368644       0.348582
                          4       1   19fz3              0.368644       0.155891

                          5       1    2s                0.390066       0.351774

                          6       1   15dx2              0.551710       0.581304
                          6       1   15dxy              0.551710       1.006848
                          6       1   15dxz              0.551710       1.006848
                          6       1   15dy2              0.551710       0.581304
                          6       1   15dyz              0.551710       1.006848
                          6       1   15dz2              0.551710       0.581304

                          7       1    9px               0.581839       0.724341
                          7       1    9py               0.581839       0.724341
                          7       1    9pz               0.581839       0.724341

                          8       1   22gx4              0.707666       0.429996
                          8       1   22gx3y             0.707666       1.137662
                          8       1   22gx3z             0.707666       1.137662
                          8       1   22gx2y2            0.707666       1.468715
                          8       1   22gx2yz            0.707666       2.543889
                          8       1   22gx2z2            0.707666       1.468715
                          8       1   22gxy3             0.707666       1.137662
                          8       1   22gxy2z            0.707666       2.543889
                          8       1   22gxyz2            0.707666       2.543889
                          8       1   22gxz3             0.707666       1.137662
                          8       1   22gy4              0.707666       0.429996
                          8       1   22gy3z             0.707666       1.137662
                          8       1   22gy2z2            0.707666       1.468715
                          8       1   22gyz3             0.707666       1.137662
                          8       1   22gz4              0.707666       0.429996

                          9       1   20fx3              0.985610       1.424921
                          9       1   20fx2y             0.985610       3.186221
                          9       1   20fx2z             0.985610       3.186221
                          9       1   20fxy2             0.985610       3.186221
                          9       1   20fxyz             0.985610       5.518696
                          9       1   20fxz2             0.985610       3.186221
                          9       1   20fy3              0.985610       1.424921
                          9       1   20fy2z             0.985610       3.186221
                          9       1   20fyz2             0.985610       3.186221
                          9       1   20fz3              0.985610       1.424921

                         10       1    3s                1.243681       0.839348

                         11       1   16dx2              1.360208       2.819802
                         11       1   16dxy              1.360208       4.884040
                         11       1   16dxz              1.360208       4.884040
                         11       1   16dy2              1.360208       2.819802
                         11       1   16dyz              1.360208       4.884040
                         11       1   16dz2              1.360208       2.819802

                         12       1   10px               1.379900       2.131815
                         12       1   10py               1.379900       2.131815
                         12       1   10pz               1.379900       2.131815

                         13       1   23gx4              2.126813       8.865247
                         13       1   23gx3y             2.126813      23.455240
                         13       1   23gx3z             2.126813      23.455240
                         13       1   23gx2y2            2.126813      30.280585
                         13       1   23gx2yz            2.126813      52.447511
                         13       1   23gx2z2            2.126813      30.280585
                         13       1   23gxy3             2.126813      23.455240
                         13       1   23gxy2z            2.126813      52.447511
                         13       1   23gxyz2            2.126813      52.447511
                         13       1   23gxz3             2.126813      23.455240
                         13       1   23gy4              2.126813       8.865247
                         13       1   23gy3z             2.126813      23.455240
                         13       1   23gy2z2            2.126813      30.280585
                         13       1   23gyz3             2.126813      23.455240
                         13       1   23gz4              2.126813       8.865247

                         14       1   17dx2              2.646890       9.040598
                         14       1   17dxy              2.646890      15.658775
                         14       1   17dxz              2.646890      15.658775
                         14       1   17dy2              2.646890       9.040598
                         14       1   17dyz              2.646890      15.658775
                         14       1   17dz2              2.646890       9.040598

                         15       1   21fx3              3.206167      20.249915
                         15       1   21fx2y             3.206167      45.280186
                         15       1   21fx2z             3.206167      45.280186
                         15       1   21fxy2             3.206167      45.280186
                         15       1   21fxyz             3.206167      78.427583
                         15       1   21fxz2             3.206167      45.280186
                         15       1   21fy3              3.206167      20.249915
                         15       1   21fy2z             3.206167      45.280186
                         15       1   21fyz2             3.206167      45.280186
                         15       1   21fz3              3.206167      20.249915

                         16       1   11px               4.091983       8.295782
                         16       1   11py               4.091983       8.295782
                         16       1   11pz               4.091983       8.295782

                         17       1    4s                4.301326       2.128687

                         18       1   18dx2              5.637053      33.943033
                         18       1   18dxy              5.637053      58.791058
                         18       1   18dxz              5.637053      58.791058
                         18       1   18dy2              5.637053      33.943033
                         18       1   18dyz              5.637053      58.791058
                         18       1   18dz2              5.637053      33.943033

                         19       1   12px               9.459890      23.648179
                         19       1   12py               9.459890      23.648179
                         19       1   12pz               9.459890      23.648179

                         20       1    5s               12.763100       4.812572

                         21       1   13px              22.221211      68.770113
                         21       1   13py              22.221211      68.770113
                         21       1   13pz              22.221211      68.770113

                         22       1    6s               37.554587      10.812032

                         23       1    7s              110.128942      24.229039

       Atomic covalent radius [Angstrom]:                                  0.750

       Atomic van der Waals radius [Angstrom]:                             1.550

     The atoms of this atomic kind are PAW atoms (GAPW):
       Hard Gaussian function radius:                                      1.512
       Rho0 radius:                                                        1.512
       Maximum GTO radius used for PAW projector construction:            24.566

     GAPW Soft Basis Set                                 aug-DZVP-MOLOPT-ae_soft

       Number of orbital shell sets:                                           2
       Number of orbital shells:                                              10
       Number of primitive Cartesian functions:                                6
       Number of Cartesian basis functions:                                   35
       Number of spherical basis functions:                                   30
       Norm type:                                                              2

       Normalised Cartesian orbitals:

                        Set   Shell   Orbital            Exponent    Coefficient

                          1       1    2s                0.060000      -0.096639
                                                         0.166384       0.037538
                                                         0.634073      -0.055669
                                                         2.325354       0.000000

                          1       2    3px               0.060000       0.000000
                                                         0.166384      -0.031930
                                                         0.634073      -0.492962
                                                         2.325354      -1.380142
                          1       2    3py               0.060000       0.000000
                                                         0.166384      -0.031930
                                                         0.634073      -0.492962
                                                         2.325354      -1.380142
                          1       2    3pz               0.060000       0.000000
                                                         0.166384      -0.031930
                                                         0.634073      -0.492962
                                                         2.325354      -1.380142

                          1       3    4px               0.060000       0.000000
                                                         0.166384       0.169694
                                                         0.634073      -0.220766
                                                         2.325354      -0.809234
                          1       3    4py               0.060000       0.000000
                                                         0.166384       0.169694
                                                         0.634073      -0.220766
                                                         2.325354      -0.809234
                          1       3    4pz               0.060000       0.000000
                                                         0.166384       0.169694
                                                         0.634073      -0.220766
                                                         2.325354      -0.809234

                          1       4    5px               0.060000       0.028594
                                                         0.166384       0.063224
                                                         0.634073      -0.046183
                                                         2.325354       0.000000
                          1       4    5py               0.060000       0.028594
                                                         0.166384       0.063224
                                                         0.634073      -0.046183
                                                         2.325354       0.000000
                          1       4    5pz               0.060000       0.028594
                                                         0.166384       0.063224
                                                         0.634073      -0.046183
                                                         2.325354       0.000000

                          1       5    4dx2              0.060000       0.000000
                                                         0.166384       0.019402
                                                         0.634073       0.555487
                                                         2.325354       1.255926
                          1       5    4dxy              0.060000       0.000000
                                                         0.166384       0.033606
                                                         0.634073       0.962132
                                                         2.325354       2.175327
                          1       5    4dxz              0.060000       0.000000
                                                         0.166384       0.033606
                                                         0.634073       0.962132
                                                         2.325354       2.175327
                          1       5    4dy2              0.060000       0.000000
                                                         0.166384       0.019402
                                                         0.634073       0.555487
                                                         2.325354       1.255926
                          1       5    4dyz              0.060000       0.000000
                                                         0.166384       0.033606
                                                         0.634073       0.962132
                                                         2.325354       2.175327
                          1       5    4dz2              0.060000       0.000000
                                                         0.166384       0.019402
                                                         0.634073       0.555487
                                                         2.325354       1.255926

                          1       6    5dx2              0.060000      -0.008089
                                                         0.166384      -0.027907
                                                         0.634073      -0.057221
                                                         2.325354       0.000000
                          1       6    5dxy              0.060000      -0.014011
                                                         0.166384      -0.048336
                                                         0.634073      -0.099109
                                                         2.325354       0.000000
                          1       6    5dxz              0.060000      -0.014011
                                                         0.166384      -0.048336
                                                         0.634073      -0.099109
                                                         2.325354       0.000000
                          1       6    5dy2              0.060000      -0.008089
                                                         0.166384      -0.027907
                                                         0.634073      -0.057221
                                                         2.325354       0.000000
                          1       6    5dyz              0.060000      -0.014011
                                                         0.166384      -0.048336
                                                         0.634073      -0.099109
                                                         2.325354       0.000000
                          1       6    5dz2              0.060000      -0.008089
                                                         0.166384      -0.027907
                                                         0.634073      -0.057221
                                                         2.325354       0.000000

                          1       7    5fx3              0.060000       0.000067
                                                         0.166384       0.012645
                                                         0.634073       0.328269
                                                         2.325354       1.687172
                          1       7    5fx2y             0.060000       0.000150
                                                         0.166384       0.028275
                                                         0.634073       0.734031
                                                         2.325354       3.772631
                          1       7    5fx2z             0.060000       0.000150
                                                         0.166384       0.028275
                                                         0.634073       0.734031
                                                         2.325354       3.772631
                          1       7    5fxy2             0.060000       0.000150
                                                         0.166384       0.028275
                                                         0.634073       0.734031
                                                         2.325354       3.772631
                          1       7    5fxyz             0.060000       0.000260
                                                         0.166384       0.048973
                                                         0.634073       1.271379
                                                         2.325354       6.534389
                          1       7    5fxz2             0.060000       0.000150
                                                         0.166384       0.028275
                                                         0.634073       0.734031
                                                         2.325354       3.772631
                          1       7    5fy3              0.060000       0.000067
                                                         0.166384       0.012645
                                                         0.634073       0.328269
                                                         2.325354       1.687172
                          1       7    5fy2z             0.060000       0.000150
                                                         0.166384       0.028275
                                                         0.634073       0.734031
                                                         2.325354       3.772631
                          1       7    5fyz2             0.060000       0.000150
                                                         0.166384       0.028275
                                                         0.634073       0.734031
                                                         2.325354       3.772631
                          1       7    5fz3              0.060000       0.000067
                                                         0.166384       0.012645
                                                         0.634073       0.328269
                                                         2.325354       1.687172

                          2       1    1s                0.191012      -0.002582
                                                         0.666629       0.012902

                          2       2    2s                0.191012       0.079194
                                                         0.666629       0.351708

                          2       3    3s                0.191012       0.300064
                                                         0.666629      -0.436823

     AE Potential information for                                            ALL

       Description:                                       All-electron potential
                                          Krack, Parrinello, PCCP 2, 2105 (2000)

       Gaussian exponent of the core charge distribution:               5.979100
       Electronic configuration (s p d ...):                           4   3   0

  2. Atomic kind: C                                     Number of atoms:       7

     Orbital Basis Set                                        aug-DZVP-MOLOPT-ae

       Number of orbital shell sets:                                           2
       Number of orbital shells:                                              10
       Number of primitive Cartesian functions:                               13
       Number of Cartesian basis functions:                                   35
       Number of spherical basis functions:                                   30
       Norm type:                                                              2

       Normalised Cartesian orbitals:

                        Set   Shell   Orbital            Exponent    Coefficient

                          1       1    2px               0.050000       0.000000
                                                         0.096935       0.005344
                                                         0.300899       0.144116
                                                         0.937529       0.673511
                                                         4.145546       1.425967
                          1       1    2py               0.050000       0.000000
                                                         0.096935       0.005344
                                                         0.300899       0.144116
                                                         0.937529       0.673511
                                                         4.145546       1.425967
                          1       1    2pz               0.050000       0.000000
                                                         0.096935       0.005344
                                                         0.300899       0.144116
                                                         0.937529       0.673511
                                                         4.145546       1.425967

                          1       2    3px               0.050000       0.000000
                                                         0.096935       0.066903
                                                         0.300899       0.082631
                                                         0.937529      -0.414500
                                                         4.145546      -0.833488
                          1       2    3py               0.050000       0.000000
                                                         0.096935       0.066903
                                                         0.300899       0.082631
                                                         0.937529      -0.414500
                                                         4.145546      -0.833488
                          1       2    3pz               0.050000       0.000000
                                                         0.096935       0.066903
                                                         0.300899       0.082631
                                                         0.937529      -0.414500
                                                         4.145546      -0.833488

                          1       3    4px               0.050000       0.052477
                                                         0.096935      -0.149600
                                                         0.300899      -0.031452
                                                         0.937529       0.106528
                                                         4.145546       0.000000
                          1       3    4py               0.050000       0.052477
                                                         0.096935      -0.149600
                                                         0.300899      -0.031452
                                                         0.937529       0.106528
                                                         4.145546       0.000000
                          1       3    4pz               0.050000       0.052477
                                                         0.096935      -0.149600
                                                         0.300899      -0.031452
                                                         0.937529       0.106528
                                                         4.145546       0.000000

                          1       4    3dx2              0.050000       0.000000
                                                         0.096935       0.001258
                                                         0.300899       0.105504
                                                         0.937529       0.830801
                                                         4.145546       0.718979
                          1       4    3dxy              0.050000       0.000000
                                                         0.096935       0.002179
                                                         0.300899       0.182739
                                                         0.937529       1.438990
                                                         4.145546       1.245309
                          1       4    3dxz              0.050000       0.000000
                                                         0.096935       0.002179
                                                         0.300899       0.182739
                                                         0.937529       1.438990
                                                         4.145546       1.245309
                          1       4    3dy2              0.050000       0.000000
                                                         0.096935       0.001258
                                                         0.300899       0.105504
                                                         0.937529       0.830801
                                                         4.145546       0.718979
                          1       4    3dyz              0.050000       0.000000
                                                         0.096935       0.002179
                                                         0.300899       0.182739
                                                         0.937529       1.438990
                                                         4.145546       1.245309
                          1       4    3dz2              0.050000       0.000000
                                                         0.096935       0.001258
                                                         0.300899       0.105504
                                                         0.937529       0.830801
                                                         4.145546       0.718979

                          1       5    4dx2              0.050000      -0.011665
                                                         0.096935       0.057456
                                                         0.300899      -0.258169
                                                         0.937529       0.000000
                                                         4.145546       0.000000
                          1       5    4dxy              0.050000      -0.020204
                                                         0.096935       0.099516
                                                         0.300899      -0.447162
                                                         0.937529       0.000000
                                                         4.145546       0.000000
                          1       5    4dxz              0.050000      -0.020204
                                                         0.096935       0.099516
                                                         0.300899      -0.447162
                                                         0.937529       0.000000
                                                         4.145546       0.000000
                          1       5    4dy2              0.050000      -0.011665
                                                         0.096935       0.057456
                                                         0.300899      -0.258169
                                                         0.937529       0.000000
                                                         4.145546       0.000000
                          1       5    4dyz              0.050000      -0.020204
                                                         0.096935       0.099516
                                                         0.300899      -0.447162
                                                         0.937529       0.000000
                                                         4.145546       0.000000
                          1       5    4dz2              0.050000      -0.011665
                                                         0.096935       0.057456
                                                         0.300899      -0.258169
                                                         0.937529       0.000000
                                                         4.145546       0.000000

                          1       6    4fx3              0.050000      -0.000180
                                                         0.096935       0.008160
                                                         0.300899       0.004002
                                                         0.937529       0.000000
                                                         4.145546       0.000000
                          1       6    4fx2y             0.050000      -0.000402
                                                         0.096935       0.018246
                                                         0.300899       0.008949
                                                         0.937529       0.000000
                                                         4.145546       0.000000
                          1       6    4fx2z             0.050000      -0.000402
                                                         0.096935       0.018246
                                                         0.300899       0.008949
                                                         0.937529       0.000000
                                                         4.145546       0.000000
                          1       6    4fxy2             0.050000      -0.000402
                                                         0.096935       0.018246
                                                         0.300899       0.008949
                                                         0.937529       0.000000
                                                         4.145546       0.000000
                          1       6    4fxyz             0.050000      -0.000696
                                                         0.096935       0.031603
                                                         0.300899       0.015500
                                                         0.937529       0.000000
                                                         4.145546       0.000000
                          1       6    4fxz2             0.050000      -0.000402
                                                         0.096935       0.018246
                                                         0.300899       0.008949
                                                         0.937529       0.000000
                                                         4.145546       0.000000
                          1       6    4fy3              0.050000      -0.000180
                                                         0.096935       0.008160
                                                         0.300899       0.004002
                                                         0.937529       0.000000
                                                         4.145546       0.000000
                          1       6    4fy2z             0.050000      -0.000402
                                                         0.096935       0.018246
                                                         0.300899       0.008949
                                                         0.937529       0.000000
                                                         4.145546       0.000000
                          1       6    4fyz2             0.050000      -0.000402
                                                         0.096935       0.018246
                                                         0.300899       0.008949
                                                         0.937529       0.000000
                                                         4.145546       0.000000
                          1       6    4fz3              0.050000      -0.000180
                                                         0.096935       0.008160
                                                         0.300899       0.004002
                                                         0.937529       0.000000
                                                         4.145546       0.000000

                          2       1    1s                0.060000       0.000000
                                                         0.161278       0.024253
                                                         0.523772      -0.029268
                                                         3.176528       0.666384
                                                        10.501907       2.110671
                                                        40.805234       2.242010
                                                       186.270922       1.801845
                                                      1238.394264      -0.490536

                          2       2    2s                0.060000       0.000000
                                                         0.161278       0.080328
                                                         0.523772       0.279468
                                                         3.176528      -0.079506
                                                        10.501907      -0.033488
                                                        40.805234       0.350132
                                                       186.270922      -0.108171
                                                      1238.394264       0.147138

                          2       3    3s                0.060000       0.000000
                                                         0.161278       0.225687
                                                         0.523772      -0.382710
                                                         3.176528      -0.308205
                                                        10.501907      -0.974990
                                                        40.805234      -2.174132
                                                       186.270922       1.755878
                                                      1238.394264     -12.484315

                          2       4    4s                0.060000      -0.055653
                                                         0.161278      -0.019607
                                                         0.523772       0.500289
                                                         3.176528       0.067234
                                                        10.501907       0.000000
                                                        40.805234       0.000000
                                                       186.270922       0.000000
                                                      1238.394264       0.000000

     RI Auxiliary Basis Set             RI_aug-DZVP-MOLOPT-ae_N_RI_102_s_p_d_f_g

       Number of orbital shell sets:                                          24
       Number of orbital shells:                                              24
       Number of primitive Cartesian functions:                               24
       Number of Cartesian basis functions:                                  137
       Number of spherical basis functions:                                  102
       Norm type:                                                              2

       Normalised Cartesian orbitals:

                        Set   Shell   Orbital            Exponent    Coefficient

                          1       1    1s                0.176773       0.194299

                          2       1    8px               0.196807       0.186849
                          2       1    8py               0.196807       0.186849
                          2       1    8pz               0.196807       0.186849

                          3       1   18fx3              0.238963       0.058776
                          3       1   18fx2y             0.238963       0.131427
                          3       1   18fx2z             0.238963       0.131427
                          3       1   18fxy2             0.238963       0.131427
                          3       1   18fxyz             0.238963       0.227638
                          3       1   18fxz2             0.238963       0.131427
                          3       1   18fy3              0.238963       0.058776
                          3       1   18fy2z             0.238963       0.131427
                          3       1   18fyz2             0.238963       0.131427
                          3       1   18fz3              0.238963       0.058776

                          4       1    2s                0.282769       0.276365

                          5       1   13dx2              0.310173       0.212186
                          5       1   13dxy              0.310173       0.367516
                          5       1   13dxz              0.310173       0.367516
                          5       1   13dy2              0.310173       0.212186
                          5       1   13dyz              0.310173       0.367516
                          5       1   13dz2              0.310173       0.212186

                          6       1   22gx4              0.415454       0.099397
                          6       1   22gx3y             0.415454       0.262980
                          6       1   22gx3z             0.415454       0.262980
                          6       1   22gx2y2            0.415454       0.339506
                          6       1   22gx2yz            0.415454       0.588042
                          6       1   22gx2z2            0.415454       0.339506
                          6       1   22gxy3             0.415454       0.262980
                          6       1   22gxy2z            0.415454       0.588042
                          6       1   22gxyz2            0.415454       0.588042
                          6       1   22gxz3             0.415454       0.262980
                          6       1   22gy4              0.415454       0.099397
                          6       1   22gy3z             0.415454       0.262980
                          6       1   22gy2z2            0.415454       0.339506
                          6       1   22gyz3             0.415454       0.262980
                          6       1   22gz4              0.415454       0.099397

                          7       1   14dx2              0.475521       0.448184
                          7       1   14dxy              0.475521       0.776278
                          7       1   14dxz              0.475521       0.776278
                          7       1   14dy2              0.475521       0.448184
                          7       1   14dyz              0.475521       0.776278
                          7       1   14dz2              0.475521       0.448184

                          8       1    9px               0.478157       0.566765
                          8       1    9py               0.478157       0.566765
                          8       1    9pz               0.478157       0.566765

                          9       1   19fx3              0.615924       0.494755
                          9       1   19fx2y             0.615924       1.106306
                          9       1   19fx2z             0.615924       1.106306
                          9       1   19fxy2             0.615924       1.106306
                          9       1   19fxyz             0.615924       1.916178
                          9       1   19fxz2             0.615924       1.106306
                          9       1   19fy3              0.615924       0.494755
                          9       1   19fy2z             0.615924       1.106306
                          9       1   19fyz2             0.615924       1.106306
                          9       1   19fz3              0.615924       0.494755

                         10       1   23gx4              0.774118       0.550370
                         10       1   23gx3y             0.774118       1.456141
                         10       1   23gx3z             0.774118       1.456141
                         10       1   23gx2y2            0.774118       1.879871
                         10       1   23gx2yz            0.774118       3.256031
                         10       1   23gx2z2            0.774118       1.879871
                         10       1   23gxy3             0.774118       1.456141
                         10       1   23gxy2z            0.774118       3.256031
                         10       1   23gxyz2            0.774118       3.256031
                         10       1   23gxz3             0.774118       1.456141
                         10       1   23gy4              0.774118       0.550370
                         10       1   23gy3z             0.774118       1.456141
                         10       1   23gy2z2            0.774118       1.879871
                         10       1   23gyz3             0.774118       1.456141
                         10       1   23gz4              0.774118       0.550370

                         11       1    3s                0.856620       0.634602

                         12       1   15dx2              0.960745       1.534525
                         12       1   15dxy              0.960745       2.657876
                         12       1   15dxz              0.960745       2.657876
                         12       1   15dy2              0.960745       1.534525
                         12       1   15dyz              0.960745       2.657876
                         12       1   15dz2              0.960745       1.534525

                         13       1   10px               1.162821       1.721200
                         13       1   10py               1.162821       1.721200
                         13       1   10pz               1.162821       1.721200

                         14       1   20fx3              1.214659       2.280218
                         14       1   20fx2y             1.214659       5.098724
                         14       1   20fx2z             1.214659       5.098724
                         14       1   20fxy2             1.214659       5.098724
                         14       1   20fxyz             1.214659       8.831248
                         14       1   20fxz2             1.214659       5.098724
                         14       1   20fy3              1.214659       2.280218
                         14       1   20fy2z             1.214659       5.098724
                         14       1   20fyz2             1.214659       5.098724
                         14       1   20fz3              1.214659       2.280218

                         15       1   24gx4              1.356232       2.572490
                         15       1   24gx3y             1.356232       6.806169
                         15       1   24gx3z             1.356232       6.806169
                         15       1   24gx2y2            1.356232       8.786727
                         15       1   24gx2yz            1.356232      15.219057
                         15       1   24gx2z2            1.356232       8.786727
                         15       1   24gxy3             1.356232       6.806169
                         15       1   24gxy2z            1.356232      15.219057
                         15       1   24gxyz2            1.356232      15.219057
                         15       1   24gxz3             1.356232       6.806169
                         15       1   24gy4              1.356232       2.572490
                         15       1   24gy3z             1.356232       6.806169
                         15       1   24gy2z2            1.356232       8.786727
                         15       1   24gyz3             1.356232       6.806169
                         15       1   24gz4              1.356232       2.572490

                         16       1   16dx2              1.921522       5.161655
                         16       1   16dxy              1.921522       8.940249
                         16       1   16dxz              1.921522       8.940249
                         16       1   16dy2              1.921522       5.161655
                         16       1   16dyz              1.921522       8.940249
                         16       1   16dz2              1.921522       5.161655

                         17       1   21fx3              2.377719      10.335118
                         17       1   21fx2y             2.377719      23.110027
                         17       1   21fx2z             2.377719      23.110027
                         17       1   21fxy2             2.377719      23.110027
                         17       1   21fxyz             2.377719      40.027741
                         17       1   21fxz2             2.377719      23.110027
                         17       1   21fy3              2.377719      10.335118
                         17       1   21fy2z             2.377719      23.110027
                         17       1   21fyz2             2.377719      23.110027
[...]
 diagonalize_C                        1  8.0    0.000    0.000    8.124    8.128
 transfer_rs2pw                     376  8.4    0.009    0.016    7.503    7.871
 mp_sync                            815  9.5    3.267    7.667    3.267    7.667
 transfer_pw2rs_250                 151 11.0    1.444    1.724    5.659    6.994
 gspace_mixing                       73  5.0    0.095    0.135    6.927    6.928
 mp_alltoall_d54                     75 10.0    3.252    6.847    3.252    6.847
 cp_fm_power                          2  7.5    0.103    0.106    6.740    6.794
 put_rho0_on_grid                    75  9.0    0.109    0.179    5.945    6.496
 integrate_vhg0_rspace               75  8.0    0.110    0.142    5.308    6.185
 transfer_rs2pw_250                 151 10.0    1.382    1.544    4.614    5.104
 fft_wrap_pw1pw2_90                 150 10.5    0.029    0.047    1.788    4.676
 mp_alltoall_d45                     76 10.0    3.593    4.517    3.593    4.517
 mp_alltoall_d11v                  1464  9.5    2.984    4.277    2.984    4.277
 rpa_num_int_RPA_matrix_operati     100  7.0    0.001    0.004    3.743    3.747
 mp_sum_dm                         4354  7.7    3.243    3.543    3.243    3.543
 cp2k_distribution_to_z_slices       75  9.0    0.295    0.422    2.439    3.300
 calc_mat_Q                         100  8.0    0.000    0.000    3.260    3.292
 contract_S_to_Q                    100  9.0    0.001    0.001    3.249    3.285
 mp_waitall_1                     72576 12.0    2.369    3.232    2.369    3.232
 broyden_mixing                      73  6.0    2.980    3.044    3.122    3.140
 mp2_ri_gpw_compute_in                1  5.0    0.004    0.007    3.018    3.020
 mp2_ri_gpw_compute_in_loop           1  6.0    0.000    0.000    2.971    2.973
 contract_B_L                         4  7.0    0.015    0.020    2.268    2.706
 Vh_1c_gg_integrals                  75  8.0    0.011    0.193    0.730    2.267
 mp_max_i                           599  2.9    0.695    2.235    0.695    2.235
 transfer_pw2rs_90                   75 12.0    0.281    0.373    1.638    2.211
 qs_scf_new_mos                      74  5.0    0.001    0.001    2.100    2.125
 calculate_vxc_atom                  75  8.0    0.032    0.226    1.973    1.974
 transfer_rs2pw_90                   75  9.0    0.325    0.416    1.533    1.933
 calc_screening_functions             1 10.0    1.598    1.642    1.829    1.893
 eigensolver_symm                    75  6.0    0.005    0.006    1.814    1.818
 transfer_pw2rs_30                   75 12.0    0.330    0.384    1.446    1.776
 xc_functional_eval                 518 10.8    0.001    0.002    0.992    1.775
 pbe_lda_eval                       518 11.8    0.991    1.774    0.991    1.774
 pw_integral_ab_c1d_c1d_gs           75  9.0    0.204    0.243    0.766    1.714
 calculate_rho_atom                 225  9.0    0.299    1.641    0.299    1.641
 gaVxcgb_GC                         222  9.0    0.051    1.619    0.051    1.619
 mp_sum_dv                        22765 10.5    1.477    1.614    1.477    1.614
 dbt_total                            8  8.0    0.000    0.000    1.463    1.463
 rs_grid_zero                       377 11.2    1.128    1.437    1.128    1.437
 dbt_contract                         4  9.0    0.000    0.000    1.380    1.399
 grid_integrate_task_list            75 10.0    0.138    1.318    0.138    1.318
 mp_isend_dm3                      3012 11.5    0.388    1.295    0.388    1.295
 rs_gather_matrices                  75 10.0    0.002    0.015    0.646    1.291
 mp2_eri_3c_integrate                 1  7.0    0.003    0.004    0.544    1.258
 integrate_set_3c                  3048  8.0    0.479    1.127    0.541    1.254
 pw_derive                          669 11.3    1.114    1.237    1.114    1.237
 mp_cart_create                     489 10.1    0.799    1.231    0.800    1.231
 dbt_pgrid_create_expert             84 10.8    0.000    0.000    0.779    1.210
 pw_copy                           1120 10.6    1.032    1.207    1.032    1.207
 calculate_rho_atom_coeff            75  6.0    0.070    0.162    1.201    1.201
 transfer_rs2pw_30                   75  9.0    0.415    0.469    1.036    1.130
 pw_gather_p                        747 11.8    0.785    0.975    0.785    0.975
 pw_scatter_p                       819 12.1    0.882    0.940    0.882    0.940
 mp_sendrecv_dv                   28650 10.0    0.808    0.893    0.808    0.893
 create_A                             1  8.0    0.012    0.021    0.858    0.890
 dbt_copy                            12 10.1    0.000    0.000    0.854    0.884
 mp_isend_dv                      27548 11.8    0.622    0.868    0.622    0.868
 dbt_reshape                          8 11.6    0.025    0.028    0.803    0.832
 dbt_communicate_buffer               8 12.6    0.001    0.001    0.769    0.798
 cp_fm_cholesky_invert              101  8.0    0.751    0.786    0.751    0.786
 compute_vec_Sigma_x_minus_vxc_       1  4.0    0.000    0.000    0.781    0.781
 pw_poisson_rebuild                  75  9.0    0.000    0.000    0.728    0.754
 ps_wavelet_create                    1 10.0    0.000    0.000    0.728    0.754
 RS_z_slice_distribution              1 11.0    0.192    0.220    0.728    0.754
 update_ks_atom                      75  8.0    0.041    0.114    0.631    0.723
 pw_poisson_set                      76  8.9    0.001    0.002    0.687    0.712
 create_B                             1  8.0    0.000    0.000    0.613    0.691
 pw_copy_to_array                   747 11.8    0.497    0.659    0.497    0.659
 mp_bcast_dm                       2850  9.0    0.590    0.614    0.590    0.614
 mp_waitall_2                        50 15.7    0.391    0.606    0.391    0.606
 qs_energies_init_hamiltonians        1  3.0    0.000    0.000    0.602    0.602
 build_core_hamiltonian_matrix        1  4.0    0.000    0.000    0.598    0.598
 overlap_condnum                      1  5.0    0.000    0.000    0.593    0.598
 arnoldi_conjugate_gradient           5  6.0    0.013    0.016    0.560    0.560
 cp_fm_syrk                           3  7.0    0.541    0.552    0.541    0.552
 dbt_tas_multiply                     8 11.5    0.000    0.000    0.544    0.549
 dbt_tas_total                        8 12.5    0.001    0.002    0.532    0.532
 fm_general_add_bse                   5 10.2    0.000    0.000    0.425    0.467
 powell_optimize                 283154 11.0    0.407    0.459    0.407    0.459
 cp_fm_cholesky_decompose           102  9.0    0.442    0.449    0.442    0.449
 calc_pair_dist_radii                 1 10.0    0.176    0.260    0.352    0.446
 compute_Erpa_by_freq_int           100  8.0    0.001    0.002    0.438    0.442
 pw_axpy                            745  9.3    0.354    0.436    0.354    0.436
 dbt_remap                            8 10.0    0.001    0.001    0.420    0.432
 init_scf_run                         1  3.0    0.000    0.000    0.414    0.414
 pw_copy_from_array                 819 12.1    0.290    0.398    0.290    0.398
 scf_env_initial_rho_setup            1  4.0    0.000    0.000    0.391    0.394
 fft_wrap_pw1pw2_30                 150 10.5    0.004    0.005    0.305    0.392
 mp_alltoall_z11v                   300 13.5    0.300    0.377    0.300    0.377
 cp_fm_to_fm_submat_general         112 10.1    0.268    0.372    0.268    0.372
 cp_fm_uplo_to_full                 184  8.4    0.281    0.367    0.281    0.367
 dbcsr_sym_matrix_vector_mult      4245  7.0    0.030    0.032    0.328    0.358
 transfer_rs2pw_10                   75  9.0    0.124    0.143    0.311    0.354
 postprocess_bse                      1  9.0    0.000    0.000    0.324    0.341
 transfer_pw2rs_10                   75 12.0    0.087    0.098    0.271    0.308
 pw_zero                            446 10.3    0.254    0.290    0.254    0.290
 mp_rank_compare                   1566 12.9    0.222    0.278    0.222    0.278
 dbt_tas_dbm                          8 13.5    0.000    0.000    0.274    0.274
 fm_general_add_bse_5_comm_buff       5 11.2    0.000    0.000    0.232    0.273
 communicate_buffer                   5 12.2    0.000    0.000    0.232    0.273
 dbm_multiply                         8 15.5    0.249    0.267    0.249    0.267
 dbt_tas_mm_1N                        6 14.5    0.000    0.000    0.239    0.256
 get_oscillator_strengths             1 10.0    0.000    0.000    0.253    0.253
 create_integ_mat                     4  6.0    0.002    0.005    0.243    0.250
 array2fm                             4  7.0    0.000    0.000    0.231    0.246
 yz_to_xz                           150 14.0    0.011    0.016    0.192    0.245
 calculate_rho0_atom                225  9.0    0.225    0.239    0.225    0.239
 integrate_four_center_getP          75 10.0    0.024    0.030    0.223    0.236
 dbcsr_multiply_generic             143  8.1    0.004    0.004    0.224    0.235
 copy_dbcsr_to_fm                   117  6.7    0.002    0.002    0.196    0.220
 mp_bcast_b_src                     155  7.5    0.164    0.200    0.164    0.200
 dbt_tas_replicate                    8 13.5    0.016    0.023    0.171    0.196
 integrate_four_center_dist_KS       75 10.0    0.016    0.021    0.179    0.179
 fft_wrap_pw1pw2_10                 150 10.5    0.001    0.001    0.139    0.177
 mp2_main_alloc_hfx                   1  4.0    0.097    0.175    0.097    0.175
 mp_alltoall_i22                    388  9.2    0.147    0.171    0.147    0.171
 dbt_tas_communicate_buffer          17 15.8    0.001    0.001    0.147    0.170
 write_mo_set_to_restart             74  5.0    0.001    0.119    0.102    0.165
 dbt_tas_replicate_communicate_       6 14.5    0.000    0.000    0.141    0.164
 calculate_dm_sparse                 74  6.0    0.000    0.001    0.148    0.157
 dbcsr_rep_row_to_rep_col_vec      4245  8.0    0.011    0.012    0.076    0.157
 cp_dbcsr_plus_fm_fm_t               74  7.0    0.001    0.001    0.147    0.156
 mp_sum_i                            21  9.7    0.078    0.155    0.078    0.155
 restraint_control                    1  2.0    0.000    0.000    0.078    0.154
 xz_to_yz                           150 11.0    0.008    0.014    0.127    0.154
 mp_sum_l                          1053  6.4    0.115    0.146    0.115    0.146
 dbcsr_col_vec_to_rep_row          4245  8.0    0.014    0.015    0.102    0.144
 external_control                    75  5.0    0.001    0.140    0.142    0.142
 dbcsr_desymmetrize_deep            119  7.6    0.004    0.005    0.119    0.141
 offload_free_buffer                 83  8.4    0.020    0.135    0.020    0.135
 multiply_cannon                    143  9.1    0.008    0.008    0.123    0.133
 dbcsr_add_d                       6427  7.0    0.003    0.003    0.024    0.132
 abc_contract                      3048  9.0    0.062    0.130    0.062    0.130
 dbcsr_complete_redistribute        269  8.5    0.018    0.022    0.115    0.130
 dbcsr_add_anytype                 6427  8.0    0.004    0.017    0.021    0.129
 integrate_four_center_load          75 10.0    0.000    0.000    0.099    0.128
 hfx_load_balance                     1 11.0    0.000    0.000    0.098    0.127
 create_qs_kind_set                   1  2.0    0.000    0.000    0.119    0.127
 read_qs_kind                         3  3.0    0.029    0.077    0.119    0.127
 vxc_of_r_new                       444  9.0    0.000    0.010    0.004    0.119
 array2fm_fill                        4  8.0    0.012    0.015    0.069    0.117
 multiply_cannon_loop               143 10.1    0.005    0.006    0.105    0.115
 hfx_load_balance_range               1 12.0    0.000    0.000    0.085    0.114
 mp_sum_iv                          187  9.9    0.039    0.112    0.039    0.112
 qs_init_subsys                       1  2.0    0.001    0.001    0.110    0.110
 mp_wait                            119  9.0    0.057    0.110    0.057    0.110
 qs_env_setup                         1  3.0    0.000    0.000    0.103    0.103
 qs_env_rebuild_pw_env                2  3.5    0.000    0.000    0.102    0.103
 pw_env_rebuild                       1  5.0    0.000    0.000    0.102    0.103
 write_mo_set_low                     4  6.0    0.000    0.000    0.101    0.102
 cp_fm_write_unformatted              4  7.0    0.101    0.102    0.101    0.102
 mp_comm_split_direct                48 14.5    0.088    0.101    0.088    0.102
 mult_B_with_W                        1  8.0    0.000    0.000    0.084    0.101
 mp_irecv_dv                      27360 11.8    0.026    0.099    0.026    0.099
 parser_read_line                 11663  4.0    0.002    0.002    0.090    0.098
 array2fm_info                        4  8.0    0.072    0.095    0.074    0.097
 parser_read_line_low                22  5.0    0.001    0.012    0.088    0.096
 mp2_main_free_hfx                    1  4.0    0.015    0.096    0.015    0.096
 mp_isendrecv_dv                  57300 12.0    0.040    0.095    0.040    0.095
 broadcast_input_information         22  6.0    0.007    0.007    0.086    0.095
 mp_irecv_dm3                      3012 11.5    0.012    0.090    0.012    0.090
 dbt_tas_estimate_result_nze          4 12.0    0.003    0.003    0.089    0.090
 dbcsr_finalize                    7877 10.5    0.004    0.025    0.025    0.088
 cp_fm_redistribute_start            80  8.0    0.000    0.000    0.033    0.088
 cp_fm_symm                          75  7.0    0.082    0.087    0.082    0.087
 scale_and_distribute               150 10.0    0.056    0.085    0.056    0.085
 pw_grid_setup                        4  6.0    0.000    0.000    0.081    0.081
 pw_grid_setup_internal               4  7.0    0.001    0.002    0.081    0.081
 scf_post_calculation_gpw             1  3.0    0.000    0.000    0.081    0.081
 write_available_results              1  4.0    0.000    0.000    0.081    0.081
 write_mo_free_results                1  5.0    0.002    0.003    0.081    0.081
 multiply_cannon_multrec           1960 11.1    0.068    0.078    0.068    0.079
 rs_scatter_matrices                 75  7.0    0.001    0.002    0.005    0.077
 get_multipoles_mo                    1 10.0    0.000    0.000    0.060    0.077
 make_m2s                           286  9.1    0.003    0.003    0.071    0.077
 mp_bcast_i_src                      88  7.0    0.039    0.071    0.039    0.071
 fm_general_add_bse_1_setup           5 11.2    0.064    0.070    0.064    0.070
 array2fm_isendrecv                   4  8.0    0.002    0.003    0.027    0.069
 Q_trace_and_add_unit_matrix        100  8.0    0.001    0.001    0.044    0.066
 rs_grid_create                      81  8.8    0.000    0.001    0.004    0.065
 mp_bcast_am_src                     22  7.0    0.039    0.065    0.040    0.065
 mp_bcast_dv                       4245  9.0    0.046    0.065    0.046    0.065
 offload_create_buffer               83  9.7    0.004    0.065    0.004    0.065
 mp_isend_im2                       863 13.2    0.044    0.062    0.044    0.062
 array2fm_buffer_send                 4  8.0    0.054    0.059    0.054    0.059
 make_images                        286 10.1    0.011    0.012    0.053    0.059
 copy_fm_to_dbcsr                   152  8.1    0.000    0.000    0.050    0.059
 dbt_split_blocks_generic            20  8.8    0.020    0.023    0.054    0.058
 cube_transpose_2                   150 11.0    0.003    0.003    0.027    0.056
 cube_transpose_1                   150 14.0    0.002    0.008    0.023    0.056
 truncate_BSE_matrices                1  8.0    0.000    0.000    0.052    0.056
 ao_to_mo_and_store_B_mult_gw_1       8  7.0    0.000    0.000    0.047    0.053
 dbt_nd_mp_comm                       8 11.0    0.000    0.000    0.025    0.052
 pw_grid_sort                         4  8.0    0.035    0.036    0.048    0.051
 dbcsr_iterator_start             51987  8.8    0.028    0.039    0.034    0.050
 fm_general_add_bse_4_buf_from_       1 10.0    0.038    0.050    0.038    0.050
 ao_to_mo_and_store_B_mult_bse_       8  7.0    0.000    0.000    0.042    0.049
 pw_scale                           297  9.5    0.037    0.047    0.037    0.047
 dbcsr_copy                       17672  7.6    0.025    0.028    0.044    0.047
 dbcsr_merge_all                   7136 11.1    0.007    0.030    0.017    0.046
 dbm_reserve_blocks                  68 14.1    0.037    0.042    0.037    0.042
 cp_fm_create                       221  7.4    0.036    0.042    0.036    0.042
 fm_general_add_bse_4_buf_from_       1 10.0    0.038    0.042    0.038    0.042
 get_2c_integrals                     1  6.0    0.000    0.000    0.038    0.041
 mp_alltoall_i                       40 13.9    0.018    0.039    0.018    0.039
 dbt_tas_reserve_blocks_index        60 13.0    0.000    0.001    0.032    0.038
 dbt_distribution_new_expert         76 10.1    0.001    0.001    0.032    0.038
 dbcsr_create_new                 20120  8.8    0.019    0.030    0.026    0.037
 hirshfeld_integration                1  6.0    0.001    0.005    0.036    0.036
 calculate_hirshfeld_normalizat       1  6.0    0.001    0.005    0.033    0.034
 xc_pw_smooth                        74 10.0    0.000    0.000    0.023    0.033
 dbt_reserve_blocks_index            36 10.8    0.001    0.001    0.027    0.033
 fm_general_add_bse_2_comm_entr       5 11.2    0.000    0.000    0.011    0.032
 ao_to_mo_and_store_B_E_Ex_gw_1       8  7.0    0.011    0.017    0.026    0.031
 hybrid_alltoall_any                405 11.1    0.015    0.022    0.021    0.031
 calc_fm_mat_S_rpa                  100  9.0    0.011    0.031    0.011    0.031
 dbcsr_iterator_stop              51987  8.8    0.020    0.025    0.024    0.030
 make_images_data                   286 11.1    0.002    0.002    0.020    0.029
 dbt_split_copyback                   4 10.0    0.021    0.024    0.025    0.028
 dbt_reserve_blocks_index_array      28 10.6    0.000    0.000    0.022    0.027
 mp_maxloc_dv                      1529  1.0    0.026    0.026    0.026    0.026
 ao_to_mo_and_store_B_E_Ex_bse_       8  7.0    0.008    0.013    0.019    0.025
 multiply_cannon_metrocomm3        1960 11.1    0.003    0.003    0.013    0.025
 self_consistency_check              74  5.0    0.000    0.000    0.017    0.024
 cp_sm_mix                           74  6.0    0.000    0.000    0.017    0.024
 mp_max_d                            76  6.9    0.017    0.024    0.017    0.024
 allocate_matrices_gw                 1  7.0    0.000    0.001    0.009    0.023
 mp_cart_sub                        240  8.7    0.022    0.023    0.022    0.023
 fm_general_add_bse_3_alloc_buf       5 11.2    0.019    0.023    0.019    0.023
 create_fast_col_vec_access        8490  8.0    0.013    0.014    0.021    0.023
 create_fast_row_vec_access        8490  8.0    0.012    0.013    0.021    0.023
 get_vec_sigma_x                      1  8.0    0.000    0.000    0.007    0.022
 dbcsr_sym_matrix_vector_mult_l    4245  8.0    0.007    0.016    0.013    0.021
 mixing_init                          1  5.0    0.020    0.020    0.021    0.021
 dbt_tas_distribution_new            96 11.8    0.013    0.014    0.020    0.020
 -------------------------------------------------------------------------------

 The number of warnings for this run is : 1
 
 -------------------------------------------------------------------------------
  **** **** ******  **  PROGRAM ENDED AT                 2025-03-15 03:56:27.385
 ***** ** ***  *** **   PROGRAM RAN ON                                  n2cn0236
 **    ****   ******    PROGRAM RAN BY                                  metdyn02
 ***** **    ** ** **   PROGRAM PROCESS ID                               2965406
  **** **  *******  **  PROGRAM STOPPED IN /scratch/hpc-prf-metdyn/metdyn02_Remi
                                           /10_MOL/05_MOL/aUKBqsEOTmq69kFe5R_nOg
                                           /5k_set_final_qzvp/VAVTOB/DZVP/GW+BSE
                                           /RILIM
