 DBCSR| CPU Multiplication driver                                           BLAS (U)
 DBCSR| Multrec recursion limit                                              512 (U)
 DBCSR| Multiplication stack size                                           1000 (D)
 DBCSR| Maximum elements for images                                    UNLIMITED (U)
 DBCSR| Multiplicative factor virtual images                                   1 (U)
 DBCSR| Use multiplication densification                                       T (D)
 DBCSR| Multiplication size stacks                                             3 (U)
 DBCSR| Use memory pool for CPU allocation                                     F (U)
 DBCSR| Number of 3D layers                                               SINGLE (U)
 DBCSR| Use MPI memory allocation                                              F (U)
 DBCSR| Use RMA algorithm                                                      F (U)
 DBCSR| Use Communication thread                                               T (U)
 DBCSR| Communication thread load                                             75 (D)
 DBCSR| MPI: My process id                                                     0
 DBCSR| MPI: Number of processes                                             216
 DBCSR| OMP: Current number of threads                                         4
 DBCSR| OMP: Max number of threads                                             4
 DBCSR| Split modifier for TAS multiplication algorithm                  1.0E+00 (U)


  **** **** ******  **  PROGRAM STARTED AT               2025-04-02 17:23:48.006
 ***** ** ***  *** **   PROGRAM STARTED ON                          i06r01c06s12
 **    ****   ******    PROGRAM STARTED BY                               di38fab
 ***** **    ** ** **   PROGRAM PROCESS ID                               1231578
  **** **  *******  **  PROGRAM STARTED IN /hppfs/scratch/04/di38fab/07_MOL_non_
                                           aug/05_MOL_non_aug/05_MOL/aUKBqsEOTmq
                                           69kFe5R_nOg/5k_set_final_qzvp/HIRSUX/
                                           TZVPP/TDDFT

 CP2K| version string:                 CP2K version 2025.1 (Development Version)
 CP2K| source code revision number:                                  git:d2e611a
 CP2K| cp2kflags: omp libint fftw3 libxc parallel scalapack max_contr=4         
 CP2K| is freely available from                            https://www.cp2k.org/
 CP2K| Program compiled at                       Thu 06 Mar 2025 05:09:20 PM CET
 CP2K| Program compiled on                                               login02
 CP2K| Program compiled for                                        Supermuc-foss
 CP2K| Data directory path                  /hppfs/work/pn36zo/di38fab/cp2k/data
 CP2K| Input file name                                                    GW.inp

 GLOBAL| Force Environment number                                              1
 GLOBAL| Basis set file name            /hppfs/scratch/04/di38fab/04_TMD/BASIS_A
 GLOBAL| Potential file name            /hppfs/work/pn36zo/di38fab/cp2k/data/ALL
 GLOBAL| MM Potential file name                                     MM_POTENTIAL
 GLOBAL| Coordinate file name                                      __STD_INPUT__
 GLOBAL| Method name                                                        CP2K
 GLOBAL| Project name                                                       MoS2
 GLOBAL| Run type                                                         ENERGY
 GLOBAL| FFT library                                                       FFTW3
 GLOBAL| Diagonalization library                                       ScaLAPACK
 GLOBAL| DGEMM library                                                      BLAS
 GLOBAL| Orthonormality check for eigenvectors                          DISABLED
 GLOBAL| Matrix multiplication library                                 ScaLAPACK
 GLOBAL| All-to-all communication in single precision                          F
 GLOBAL| FFTs using library dependent lengths                                  F
 GLOBAL| Grid backend                                                       AUTO
 GLOBAL| Global print level                                               MEDIUM
 GLOBAL| MPI I/O enabled                                                       T
 GLOBAL| Total number of message passing processes                           216
 GLOBAL| Number of threads for this process                                    4
 GLOBAL| This output is from process                                           0
 GLOBAL| OpenMP stack size per thread (OMP_STACKSIZE)                    default
 GLOBAL| CPU model name             Intel(R) Xeon(R) Platinum 8174 CPU @ 3.10GHz

 MEMORY| system memory details [Kb]
 MEMORY|                        rank 0           min           max       average
 MEMORY| MemTotal             98436660      98436660      98436708      98436674
 MEMORY| MemFree              83794676      83598964      83962140      83845771
 MEMORY| Buffers                     0             0             0             0
 MEMORY| Cached                2392204       2384696       2424784       2403405
 MEMORY| Slab                  1242504       1231052       1244520       1238679
 MEMORY| SReclaimable           279832        271120        283072        276924
 MEMORY| MemLikelyFree        86466712      86272084      86633872      86526100


 *** Fundamental physical constants (SI units) ***

 *** Literature: B. J. Mohr and B. N. Taylor,
 ***             CODATA recommended values of the fundamental physical
 ***             constants: 2006, Web Version 5.1
 ***             http://physics.nist.gov/constants

 Speed of light in vacuum [m/s]                             2.99792458000000E+08
 Magnetic constant or permeability of vacuum [N/A**2]       1.25663706143592E-06
 Electric constant or permittivity of vacuum [F/m]          8.85418781762039E-12
 Planck constant (h) [J*s]                                  6.62606896000000E-34
 Planck constant (h-bar) [J*s]                              1.05457162825177E-34
 Elementary charge [C]                                      1.60217648700000E-19
 Electron mass [kg]                                         9.10938215000000E-31
 Electron g factor [ ]                                     -2.00231930436220E+00
 Proton mass [kg]                                           1.67262163700000E-27
 Fine-structure constant                                    7.29735253760000E-03
 Rydberg constant [1/m]                                     1.09737315685270E+07
 Avogadro constant [1/mol]                                  6.02214179000000E+23
 Boltzmann constant [J/K]                                   1.38065040000000E-23
 Atomic mass unit [kg]                                      1.66053878200000E-27
 Bohr radius [m]                                            5.29177208590000E-11

 *** Conversion factors ***

 [u] -> [a.u.]                                              1.82288848426455E+03
 [Angstrom] -> [Bohr] = [a.u.]                              1.88972613288564E+00
 [a.u.] = [Bohr] -> [Angstrom]                              5.29177208590000E-01
 [a.u.] -> [s]                                              2.41888432650478E-17
 [a.u.] -> [fs]                                             2.41888432650478E-02
 [a.u.] -> [J]                                              4.35974393937059E-18
 [a.u.] -> [N]                                              8.23872205491840E-08
 [a.u.] -> [K]                                              3.15774647902944E+05
 [a.u.] -> [kJ/mol]                                         2.62549961709828E+03
 [a.u.] -> [kcal/mol]                                       6.27509468713739E+02
 [a.u.] -> [Pa]                                             2.94210107994716E+13
 [a.u.] -> [bar]                                            2.94210107994716E+08
 [a.u.] -> [atm]                                            2.90362800883016E+08
 [a.u.] -> [eV]                                             2.72113838565563E+01
 [a.u.] -> [Hz]                                             6.57968392072181E+15
 [a.u.] -> [1/cm] (wave numbers)                            2.19474631370540E+05
 [a.u./Bohr**2] -> [1/cm]                                   5.14048714338585E+03
 

 CELL_TOP| Volume [angstrom^3]:                                     27000.000000
 CELL_TOP| Vector a [angstrom    30.000     0.000     0.000   |a| =    30.000000
 CELL_TOP| Vector b [angstrom     0.000    30.000     0.000   |b| =    30.000000
 CELL_TOP| Vector c [angstrom     0.000     0.000    30.000   |c| =    30.000000
 CELL_TOP| Angle (b,c), alpha [degree]:                                90.000000
 CELL_TOP| Angle (a,c), beta  [degree]:                                90.000000
 CELL_TOP| Angle (a,b), gamma [degree]:                                90.000000
 CELL_TOP| Numerically orthorhombic:                                         YES
 CELL_TOP| Periodicity                                                      NONE

 GENERATE|  Preliminary Number of Bonds generated:                             0
 GENERATE|  Achieved consistency in connectivity generation.

 CELL| Volume [angstrom^3]:                                         27000.000000
 CELL| Vector a [angstrom]:      30.000     0.000     0.000   |a| =    30.000000
 CELL| Vector b [angstrom]:       0.000    30.000     0.000   |b| =    30.000000
 CELL| Vector c [angstrom]:       0.000     0.000    30.000   |c| =    30.000000
 CELL| Angle (b,c), alpha [degree]:                                    90.000000
 CELL| Angle (a,c), beta  [degree]:                                    90.000000
 CELL| Angle (a,b), gamma [degree]:                                    90.000000
 CELL| Numerically orthorhombic:                                             YES
 CELL| Periodicity                                                          NONE

 CELL_REF| Volume [angstrom^3]:                                     27000.000000
 CELL_REF| Vector a [angstrom    30.000     0.000     0.000   |a| =    30.000000
 CELL_REF| Vector b [angstrom     0.000    30.000     0.000   |b| =    30.000000
 CELL_REF| Vector c [angstrom     0.000     0.000    30.000   |c| =    30.000000
 CELL_REF| Angle (b,c), alpha [degree]:                                90.000000
 CELL_REF| Angle (a,c), beta  [degree]:                                90.000000
 CELL_REF| Angle (a,b), gamma [degree]:                                90.000000
 CELL_REF| Numerically orthorhombic:                                         YES
 CELL_REF| Periodicity                                                      NONE

 *******************************************************************************
 *******************************************************************************
 **                                                                           **
 **     #####                         ##              ##                      **
 **    ##   ##            ##          ##              ##                      **
 **   ##     ##                       ##            ######                    **
 **   ##     ##  ##   ##  ##   #####  ##  ##   ####   ##    #####    #####    **
 **   ##     ##  ##   ##  ##  ##      ## ##   ##      ##   ##   ##  ##   ##   **
 **   ##  ## ##  ##   ##  ##  ##      ####     ###    ##   ######   ######    **
 **    ##  ###   ##   ##  ##  ##      ## ##      ##   ##   ##       ##        **
 **     #######   #####   ##   #####  ##  ##  ####    ##    #####   ##        **
 **           ##                                                    ##        **
 **                                                                           **
 **                                                ... make the atoms dance   **
 **                                                                           **
 **            Copyright (C) by CP2K developers group (2000-2025)             **
 **                      J. Chem. Phys. 152, 194103 (2020)                    **
 **                                                                           **
 *******************************************************************************

 DFT| Spin restricted Kohn-Sham (RKS) calculation                            RKS
 DFT| Multiplicity                                                             1
 DFT| Number of spin states                                                    1
 DFT| Charge                                                                   0
 DFT| Self-interaction correction (SIC)                                       NO
 DFT| Cutoffs: density                                              1.000000E-10
 DFT|          gradient                                             1.000000E-10
 DFT|          tau                                                  1.000000E-10
 DFT|          cutoff_smoothing_range                               0.000000E+00
 DFT| XC density smoothing                                                  NONE
 DFT| XC derivatives                                                          PW

 FUNCTIONAL| PBE:
 FUNCTIONAL| J.P.Perdew, K.Burke, M.Ernzerhof, Phys. Rev. Letter, vol. 77, n 18,
 FUNCTIONAL|  pp. 3865-3868, (1996)sx=0.750sc=1.000{spin unpolarized}           


 QS| Method:                                                                GAPW
 QS| Density plane wave grid type                        NON-SPHERICAL FULLSPACE
 QS| Number of grid levels:                                                    4
 QS| Density cutoff [a.u.]:                                                250.0
 QS| Multi grid cutoff [a.u.]: 1) grid level                               250.0
 QS|                           2) grid level                                83.3
 QS|                           3) grid level                                27.8
 QS|                           4) grid level                                 9.3
 QS| Grid level progression factor:                                          3.0
 QS| Relative density cutoff [a.u.]:                                        50.0
 QS| Interaction thresholds: eps_pgf_orb:                                1.0E-12
 QS|                         eps_filter_matrix:                          0.0E+00
 QS|                         eps_core_charge:                            1.0E-14
 QS|                         eps_rho_gspace:                             1.0E-12
 QS|                         eps_rho_rspace:                             1.0E-12
 QS|                         eps_gvg_rspace:                             1.0E-06
 QS|                         eps_ppl:                                    1.0E-02
 QS|                         eps_ppnl:                                   1.0E-08
 QS| GAPW|      One center basis from orbital basis primitives
 QS| GAPW|                   eps_fit:                                    1.0E-04
 QS| GAPW|                   eps_iso:                                    1.0E-12
 QS| GAPW|                   eps_svd:                                    1.0E-08
 QS| GAPW|                   eps_cpc:                                    1.0E-12
 QS| GAPW|   atom-r-grid: quadrature:                                     GC_LOG
 QS| GAPW|      atom-s-grid:  max l :                                          6
 QS| GAPW|      max_l_rho0 :                                                   2


 ATOMIC KIND INFORMATION

  1. Atomic kind: C                                     Number of atoms:       7

     Orbital Basis Set                                       TZVPP-MOLOPT-GGA-ae

       Number of orbital shell sets:                                           2
       Number of orbital shells:                                              11
       Number of primitive Cartesian functions:                               12
       Number of Cartesian basis functions:                                   36
       Number of spherical basis functions:                                   31
       Norm type:                                                              2

       Normalised Cartesian orbitals:

                        Set   Shell   Orbital            Exponent    Coefficient

                          1       1    1s               34.417212       0.637474
                                                         6.739673       1.752510
                                                         2.441624       0.446183
                                                         0.806764       0.003692
                                                         0.283960       0.027513
                                                         0.097098       0.019281

                          1       2    2s               34.417212       1.102934
                                                         6.739673      -0.288836
                                                         2.441624      -0.104551
                                                         0.806764       0.362633
                                                         0.283960       0.094997
                                                         0.097098       0.029117

                          1       3    3s               34.417212      -6.120053
                                                         6.739673      -0.168746
                                                         2.441624      -0.199197
                                                         0.806764      -0.252838
                                                         0.283960       0.169545
                                                         0.097098       0.047046

                          1       4    4s               34.417212      -3.786931
                                                         6.739673      -0.401007
                                                         2.441624      -0.053941
                                                         0.806764       0.091223
                                                         0.283960      -0.341415
                                                         0.097098       0.188374

                          1       5    2px              34.417212       2.016536
                                                         6.739673       2.243109
                                                         2.441624       0.695625
                                                         0.806764       0.779023
                                                         0.283960       0.032186
                                                         0.097098       0.005087
                          1       5    2py              34.417212       2.016536
                                                         6.739673       2.243109
                                                         2.441624       0.695625
                                                         0.806764       0.779023
                                                         0.283960       0.032186
                                                         0.097098       0.005087
                          1       5    2pz              34.417212       2.016536
                                                         6.739673       2.243109
                                                         2.441624       0.695625
                                                         0.806764       0.779023
                                                         0.283960       0.032186
                                                         0.097098       0.005087

                          1       6    3px              34.417212       1.690366
                                                         6.739673      -2.720242
                                                         2.441624       0.912249
                                                         0.806764      -0.188640
                                                         0.283960       0.294367
                                                         0.097098       0.008084
                          1       6    3py              34.417212       1.690366
                                                         6.739673      -2.720242
                                                         2.441624       0.912249
                                                         0.806764      -0.188640
                                                         0.283960       0.294367
                                                         0.097098       0.008084
                          1       6    3pz              34.417212       1.690366
                                                         6.739673      -2.720242
                                                         2.441624       0.912249
                                                         0.806764      -0.188640
                                                         0.283960       0.294367
                                                         0.097098       0.008084

                          1       7    4px              34.417212     -12.705833
                                                         6.739673       1.761645
                                                         2.441624      -0.855991
                                                         0.806764      -0.070055
                                                         0.283960      -0.017243
                                                         0.097098       0.081068
                          1       7    4py              34.417212     -12.705833
                                                         6.739673       1.761645
                                                         2.441624      -0.855991
                                                         0.806764      -0.070055
                                                         0.283960      -0.017243
                                                         0.097098       0.081068
                          1       7    4pz              34.417212     -12.705833
                                                         6.739673       1.761645
                                                         2.441624      -0.855991
                                                         0.806764      -0.070055
                                                         0.283960      -0.017243
                                                         0.097098       0.081068

                          1       8    3dx2             34.417212     174.894573
                                                         6.739673       4.248634
                                                         2.441624       3.763414
                                                         0.806764       0.546922
                                                         0.283960       0.015501
                                                         0.097098       0.001415
                          1       8    3dxy             34.417212     302.926287
                                                         6.739673       7.358850
                                                         2.441624       6.518424
                                                         0.806764       0.947296
                                                         0.283960       0.026849
                                                         0.097098       0.002451
                          1       8    3dxz             34.417212     302.926287
                                                         6.739673       7.358850
                                                         2.441624       6.518424
                                                         0.806764       0.947296
                                                         0.283960       0.026849
                                                         0.097098       0.002451
                          1       8    3dy2             34.417212     174.894573
                                                         6.739673       4.248634
                                                         2.441624       3.763414
                                                         0.806764       0.546922
                                                         0.283960       0.015501
                                                         0.097098       0.001415
                          1       8    3dyz             34.417212     302.926287
                                                         6.739673       7.358850
                                                         2.441624       6.518424
                                                         0.806764       0.947296
                                                         0.283960       0.026849
                                                         0.097098       0.002451
                          1       8    3dz2             34.417212     174.894573
                                                         6.739673       4.248634
                                                         2.441624       3.763414
                                                         0.806764       0.546922
                                                         0.283960       0.015501
                                                         0.097098       0.001415

                          1       9    4dx2             34.417212    -164.169372
                                                         6.739673      -4.401044
                                                         2.441624      -2.510108
                                                         0.806764       0.323683
                                                         0.283960       0.139703
                                                         0.097098       0.001225
                          1       9    4dxy             34.417212    -284.349694
                                                         6.739673      -7.622831
                                                         2.441624      -4.347634
                                                         0.806764       0.560636
                                                         0.283960       0.241972
                                                         0.097098       0.002122
                          1       9    4dxz             34.417212    -284.349694
                                                         6.739673      -7.622831
                                                         2.441624      -4.347634
                                                         0.806764       0.560636
                                                         0.283960       0.241972
                                                         0.097098       0.002122
                          1       9    4dy2             34.417212    -164.169372
                                                         6.739673      -4.401044
                                                         2.441624      -2.510108
                                                         0.806764       0.323683
                                                         0.283960       0.139703
                                                         0.097098       0.001225
                          1       9    4dyz             34.417212    -284.349694
                                                         6.739673      -7.622831
                                                         2.441624      -4.347634
                                                         0.806764       0.560636
                                                         0.283960       0.241972
                                                         0.097098       0.002122
                          1       9    4dz2             34.417212    -164.169372
                                                         6.739673      -4.401044
                                                         2.441624      -2.510108
                                                         0.806764       0.323683
                                                         0.283960       0.139703
                                                         0.097098       0.001225

                          1      10    4fx3             34.417212      49.427593
                                                         6.739673      -2.026957
                                                         2.441624       1.033755
                                                         0.806764       0.576468
                                                         0.283960       0.042127
                                                         0.097098      -0.000799
                          1      10    4fx2y            34.417212     110.523457
                                                         6.739673      -4.532415
                                                         2.441624       2.311546
                                                         0.806764       1.289022
                                                         0.283960       0.094199
                                                         0.097098      -0.001786
                          1      10    4fx2z            34.417212     110.523457
                                                         6.739673      -4.532415
                                                         2.441624       2.311546
                                                         0.806764       1.289022
                                                         0.283960       0.094199
                                                         0.097098      -0.001786
                          1      10    4fxy2            34.417212     110.523457
                                                         6.739673      -4.532415
                                                         2.441624       2.311546
                                                         0.806764       1.289022
                                                         0.283960       0.094199
                                                         0.097098      -0.001786
                          1      10    4fxyz            34.417212     191.432243
                                                         6.739673      -7.850372
                                                         2.441624       4.003716
                                                         0.806764       2.232651
                                                         0.283960       0.163158
                                                         0.097098      -0.003093
                          1      10    4fxz2            34.417212     110.523457
                                                         6.739673      -4.532415
                                                         2.441624       2.311546
                                                         0.806764       1.289022
                                                         0.283960       0.094199
                                                         0.097098      -0.001786
                          1      10    4fy3             34.417212      49.427593
                                                         6.739673      -2.026957
                                                         2.441624       1.033755
                                                         0.806764       0.576468
                                                         0.283960       0.042127
                                                         0.097098      -0.000799
                          1      10    4fy2z            34.417212     110.523457
                                                         6.739673      -4.532415
                                                         2.441624       2.311546
                                                         0.806764       1.289022
                                                         0.283960       0.094199
                                                         0.097098      -0.001786
                          1      10    4fyz2            34.417212     110.523457
                                                         6.739673      -4.532415
                                                         2.441624       2.311546
                                                         0.806764       1.289022
                                                         0.283960       0.094199
                                                         0.097098      -0.001786
                          1      10    4fz3             34.417212      49.427593
                                                         6.739673      -2.026957
                                                         2.441624       1.033755
                                                         0.806764       0.576468
                                                         0.283960       0.042127
                                                         0.097098      -0.000799

                          2       1    1s            13575.369584       0.323227
                                                      2035.237517       2.062509
                                                       463.111112       2.210797
                                                       131.318553       4.954487
                                                        42.899593       1.730189
                                                        15.855102       4.257999

     RI Auxiliary Basis Set                                    aug-cc-pV5Z-OPTRI

       Number of orbital shell sets:                                          22
       Number of orbital shells:                                              22
       Number of primitive Cartesian functions:                               22
       Number of Cartesian basis functions:                                  188
       Number of spherical basis functions:                                  122
       Norm type:                                                              2

       Normalised Cartesian orbitals:

                        Set   Shell   Orbital            Exponent    Coefficient

                          1       1    1gx4              0.114786       0.002892
                          1       1    1gx3y             0.114786       0.007650
                          1       1    1gx3z             0.114786       0.007650
                          1       1    1gx2y2            0.114786       0.009877
                          1       1    1gx2yz            0.114786       0.017107
                          1       1    1gx2z2            0.114786       0.009877
                          1       1    1gxy3             0.114786       0.007650
                          1       1    1gxy2z            0.114786       0.017107
                          1       1    1gxyz2            0.114786       0.017107
                          1       1    1gxz3             0.114786       0.007650
                          1       1    1gy4              0.114786       0.002892
                          1       1    1gy3z             0.114786       0.007650
                          1       1    1gy2z2            0.114786       0.009877
                          1       1    1gyz3             0.114786       0.007650
                          1       1    1gz4              0.114786       0.002892

                          2       1    1px               0.121920       0.102691
                          2       1    1py               0.121920       0.102691
                          2       1    1pz               0.121920       0.102691

                          3       1    1s                0.152658       0.174060

                          4       1    1px               0.299745       0.316140
                          4       1    1py               0.299745       0.316140
                          4       1    1pz               0.299745       0.316140

                          5       1    1s                0.384933       0.348296

                          6       1    1hx5              0.391317       0.035161
                          6       1    1hx4y             0.391317       0.105483
                          6       1    1hx4z             0.391317       0.105483
                          6       1    1hx3y2            0.391317       0.161128
                          6       1    1hx3yz            0.391317       0.279083
                          6       1    1hx3z2            0.391317       0.161128
                          6       1    1hx2y3            0.391317       0.161128
                          6       1    1hx2y2z           0.391317       0.360294
                          6       1    1hx2yz2           0.391317       0.360294
                          6       1    1hx2z3            0.391317       0.161128
                          6       1    1hxy4             0.391317       0.105483
                          6       1    1hxy3z            0.391317       0.279083
                          6       1    1hxy2z2           0.391317       0.360294
                          6       1    1hxyz3            0.391317       0.279083
                          6       1    1hxz4             0.391317       0.105483
                          6       1    1hy5              0.391317       0.035161
                          6       1    1hy4z             0.391317       0.105483
                          6       1    1hy3z2            0.391317       0.161128
                          6       1    1hy2z3            0.391317       0.161128
                          6       1    1hyz4             0.391317       0.105483
                          6       1    1hz5              0.391317       0.035161

                          7       1    1fx3              0.540840       0.369283
                          7       1    1fx2y             0.540840       0.825742
                          7       1    1fx2z             0.540840       0.825742
                          7       1    1fxy2             0.540840       0.825742
                          7       1    1fxyz             0.540840       1.430227
                          7       1    1fxz2             0.540840       0.825742
                          7       1    1fy3              0.540840       0.369283
                          7       1    1fy2z             0.540840       0.825742
                          7       1    1fyz2             0.540840       0.825742
                          7       1    1fz3              0.540840       0.369283

                          8       1    1px               0.678328       0.877485
                          8       1    1py               0.678328       0.877485
                          8       1    1pz               0.678328       0.877485

                          9       1    1dx2              0.754246       1.004748
                          9       1    1dxy              0.754246       1.740275
                          9       1    1dxz              0.754246       1.740275
                          9       1    1dy2              0.754246       1.004748
                          9       1    1dyz              0.754246       1.740275
                          9       1    1dz2              0.754246       1.004748

                         10       1    1gx4              1.012792       1.152434
                         10       1    1gx3y             1.012792       3.049054
                         10       1    1gx3z             1.012792       3.049054
                         10       1    1gx2y2            1.012792       3.936312
                         10       1    1gx2yz            1.012792       6.817893
                         10       1    1gx2z2            1.012792       3.936312
                         10       1    1gxy3             1.012792       3.049054
                         10       1    1gxy2z            1.012792       6.817893
                         10       1    1gxyz2            1.012792       6.817893
                         10       1    1gxz3             1.012792       3.049054
                         10       1    1gy4              1.012792       1.152434
                         10       1    1gy3z             1.012792       3.049054
                         10       1    1gy2z2            1.012792       3.936312
                         10       1    1gyz3             1.012792       3.049054
                         10       1    1gz4              1.012792       1.152434

                         11       1    1s                1.103587       0.767388

                         12       1    1ix6              1.245967       1.020534
                         12       1    1ix5y             1.245967       3.384727
                         12       1    1ix5z             1.245967       3.384727
                         12       1    1ix4y2            1.245967       5.862520
                         12       1    1ix4yz            1.245967      10.154182
                         12       1    1ix4z2            1.245967       5.862520
                         12       1    1ix3y3            1.245967       6.936627
                         12       1    1ix3y2z           1.245967      15.510769
                         12       1    1ix3yz2           1.245967      15.510769
                         12       1    1ix3z3            1.245967       6.936627
                         12       1    1ix2y4            1.245967       5.862520
                         12       1    1ix2y3z           1.245967      15.510769
                         12       1    1ix2y2z2          1.245967      20.024317
                         12       1    1ix2yz3           1.245967      15.510769
                         12       1    1ix2z4            1.245967       5.862520
                         12       1    1ixy5             1.245967       3.384727
                         12       1    1ixy4z            1.245967      10.154182
                         12       1    1ixy3z2           1.245967      15.510769
                         12       1    1ixy2z3           1.245967      15.510769
                         12       1    1ixyz4            1.245967      10.154182
                         12       1    1ixz5             1.245967       3.384727
                         12       1    1iy6              1.245967       1.020534
                         12       1    1iy5z             1.245967       3.384727
                         12       1    1iy4z2            1.245967       5.862520
                         12       1    1iy3z3            1.245967       6.936627
                         12       1    1iy2z4            1.245967       5.862520
                         12       1    1iyz5             1.245967       3.384727
                         12       1    1iz6              1.245967       1.020534

                         13       1    1fx3              1.255807       2.457712
                         13       1    1fx2y             1.255807       5.495611
                         13       1    1fx2z             1.255807       5.495611
                         13       1    1fxy2             1.255807       5.495611
                         13       1    1fxyz             1.255807       9.518677
                         13       1    1fxz2             1.255807       5.495611
                         13       1    1fy3              1.255807       2.457712
                         13       1    1fy2z             1.255807       5.495611
                         13       1    1fyz2             1.255807       5.495611
                         13       1    1fz3              1.255807       2.457712

                         14       1    1px               1.626163       2.617551
                         14       1    1py               1.626163       2.617551
                         14       1    1pz               1.626163       2.617551

                         15       1    1dx2              1.990505       5.490289
                         15       1    1dxy              1.990505       9.509459
                         15       1    1dxz              1.990505       9.509459
                         15       1    1dy2              1.990505       5.490289
                         15       1    1dyz              1.990505       9.509459
                         15       1    1dz2              1.990505       5.490289

                         16       1    1hx5              2.339630      11.750937
                         16       1    1hx4y             2.339630      35.252812
                         16       1    1hx4z             2.339630      35.252812
                         16       1    1hx3y2            2.339630      53.849559
                         16       1    1hx3yz            2.339630      93.270173
                         16       1    1hx3z2            2.339630      53.849559
                         16       1    1hx2y3            2.339630      53.849559
                         16       1    1hx2y2z           2.339630     120.411275
                         16       1    1hx2yz2           2.339630     120.411275
                         16       1    1hx2z3            2.339630      53.849559
                         16       1    1hxy4             2.339630      35.252812
                         16       1    1hxy3z            2.339630      93.270173
                         16       1    1hxy2z2           2.339630     120.411275
                         16       1    1hxyz3            2.339630      93.270173
                         16       1    1hxz4             2.339630      35.252812
                         16       1    1hy5              2.339630      11.750937
                         16       1    1hy4z             2.339630      35.252812
                         16       1    1hy3z2            2.339630      53.849559
                         16       1    1hy2z3            2.339630      53.849559
                         16       1    1hyz4             2.339630      35.252812
                         16       1    1hz5              2.339630      11.750937

                         17       1    1gx4              3.524920      35.570986
                         17       1    1gx3y             3.524920      94.111983
                         17       1    1gx3z             3.524920      94.111983
                         17       1    1gx2y2            3.524920     121.498047
                         17       1    1gx2yz            3.524920     210.440791
                         17       1    1gx2z2            3.524920     121.498047
                         17       1    1gxy3             3.524920      94.111983
                         17       1    1gxy2z            3.524920     210.440791
                         17       1    1gxyz2            3.524920     210.440791
                         17       1    1gxz3             3.524920      94.111983
                         17       1    1gy4              3.524920      35.570986
                         17       1    1gy3z             3.524920      94.111983
                         17       1    1gy2z2            3.524920     121.498047
                         17       1    1gyz3             3.524920      94.111983
                         17       1    1gz4              3.524920      35.570986

                         18       1    1px               4.160664       8.470195
                         18       1    1py               4.160664       8.470195
                         18       1    1pz               4.160664       8.470195

                         19       1    1s                4.500495       2.202193

                         20       1    1fx3              4.904034      52.686550
                         20       1    1fx2y             4.904034     117.810708
                         20       1    1fx2z             4.904034     117.810708
                         20       1    1fxy2             4.904034     117.810708
                         20       1    1fxyz             4.904034     204.054131
                         20       1    1fxz2             4.904034     117.810708
                         20       1    1fy3              4.904034      52.686550
                         20       1    1fy2z             4.904034     117.810708
                         20       1    1fyz2             4.904034     117.810708
                         20       1    1fz3              4.904034      52.686550

                         21       1    1dx2              5.244543      29.915609
                         21       1    1dxy              5.244543      51.815354
                         21       1    1dxz              5.244543      51.815354
                         21       1    1dy2              5.244543      29.915609
                         21       1    1dyz              5.244543      51.815354
                         21       1    1dz2              5.244543      29.915609

                         22       1    1dx2             10.138089      94.805303
                         22       1    1dxy             10.138089     164.207602
                         22       1    1dxz             10.138089     164.207602
                         22       1    1dy2             10.138089      94.805303
                         22       1    1dyz             10.138089     164.207602
                         22       1    1dz2             10.138089      94.805303

       Atomic covalent radius [Angstrom]:                                  0.770

       Atomic van der Waals radius [Angstrom]:                             1.700

     The atoms of this atomic kind are PAW atoms (GAPW):
       Hard Gaussian function radius:                                      1.512
       Rho0 radius:                                                        1.512
       Maximum GTO radius used for PAW projector construction:            24.566

     GAPW Soft Basis Set                                TZVPP-MOLOPT-GGA-ae_soft

       Number of orbital shell sets:                                           2
       Number of orbital shells:                                              11
       Number of primitive Cartesian functions:                                4
       Number of Cartesian basis functions:                                   36
       Number of spherical basis functions:                                   31
       Norm type:                                                              2

       Normalised Cartesian orbitals:

                        Set   Shell   Orbital            Exponent    Coefficient

                          1       1    1s                2.441624       0.446183
                                                         0.806764       0.003692
                                                         0.283960       0.027513
                                                         0.097098       0.019281

                          1       2    2s                2.441624      -0.104551
                                                         0.806764       0.362633
                                                         0.283960       0.094997
                                                         0.097098       0.029117

                          1       3    3s                2.441624      -0.199197
                                                         0.806764      -0.252838
                                                         0.283960       0.169545
                                                         0.097098       0.047046

                          1       4    4s                2.441624      -0.053941
                                                         0.806764       0.091223
                                                         0.283960      -0.341415
                                                         0.097098       0.188374

                          1       5    2px               2.441624       0.695625
                                                         0.806764       0.779023
                                                         0.283960       0.032186
                                                         0.097098       0.005087
                          1       5    2py               2.441624       0.695625
                                                         0.806764       0.779023
                                                         0.283960       0.032186
                                                         0.097098       0.005087
                          1       5    2pz               2.441624       0.695625
                                                         0.806764       0.779023
                                                         0.283960       0.032186
                                                         0.097098       0.005087

                          1       6    3px               2.441624       0.912249
                                                         0.806764      -0.188640
                                                         0.283960       0.294367
                                                         0.097098       0.008084
                          1       6    3py               2.441624       0.912249
                                                         0.806764      -0.188640
                                                         0.283960       0.294367
                                                         0.097098       0.008084
                          1       6    3pz               2.441624       0.912249
                                                         0.806764      -0.188640
                                                         0.283960       0.294367
                                                         0.097098       0.008084

                          1       7    4px               2.441624      -0.855991
                                                         0.806764      -0.070055
                                                         0.283960      -0.017243
                                                         0.097098       0.081068
                          1       7    4py               2.441624      -0.855991
                                                         0.806764      -0.070055
                                                         0.283960      -0.017243
                                                         0.097098       0.081068
                          1       7    4pz               2.441624      -0.855991
                                                         0.806764      -0.070055
                                                         0.283960      -0.017243
                                                         0.097098       0.081068

                          1       8    3dx2              2.441624       3.763414
                                                         0.806764       0.546922
                                                         0.283960       0.015501
                                                         0.097098       0.001415
                          1       8    3dxy              2.441624       6.518424
                                                         0.806764       0.947296
                                                         0.283960       0.026849
                                                         0.097098       0.002451
                          1       8    3dxz              2.441624       6.518424
                                                         0.806764       0.947296
                                                         0.283960       0.026849
                                                         0.097098       0.002451
                          1       8    3dy2              2.441624       3.763414
                                                         0.806764       0.546922
                                                         0.283960       0.015501
                                                         0.097098       0.001415
                          1       8    3dyz              2.441624       6.518424
                                                         0.806764       0.947296
                                                         0.283960       0.026849
                                                         0.097098       0.002451
                          1       8    3dz2              2.441624       3.763414
                                                         0.806764       0.546922
                                                         0.283960       0.015501
                                                         0.097098       0.001415

                          1       9    4dx2              2.441624      -2.510108
                                                         0.806764       0.323683
                                                         0.283960       0.139703
                                                         0.097098       0.001225
                          1       9    4dxy              2.441624      -4.347634
                                                         0.806764       0.560636
                                                         0.283960       0.241972
                                                         0.097098       0.002122
                          1       9    4dxz              2.441624      -4.347634
                                                         0.806764       0.560636
                                                         0.283960       0.241972
                                                         0.097098       0.002122
                          1       9    4dy2              2.441624      -2.510108
                                                         0.806764       0.323683
                                                         0.283960       0.139703
                                                         0.097098       0.001225
                          1       9    4dyz              2.441624      -4.347634
                                                         0.806764       0.560636
                                                         0.283960       0.241972
                                                         0.097098       0.002122
                          1       9    4dz2              2.441624      -2.510108
                                                         0.806764       0.323683
                                                         0.283960       0.139703
                                                         0.097098       0.001225

                          1      10    4fx3              2.441624       1.033755
                                                         0.806764       0.576468
                                                         0.283960       0.042127
                                                         0.097098      -0.000799
                          1      10    4fx2y             2.441624       2.311546
                                                         0.806764       1.289022
                                                         0.283960       0.094199
                                                         0.097098      -0.001786
                          1      10    4fx2z             2.441624       2.311546
                                                         0.806764       1.289022
                                                         0.283960       0.094199
                                                         0.097098      -0.001786
                          1      10    4fxy2             2.441624       2.311546
                                                         0.806764       1.289022
                                                         0.283960       0.094199
                                                         0.097098      -0.001786
                          1      10    4fxyz             2.441624       4.003716
                                                         0.806764       2.232651
                                                         0.283960       0.163158
                                                         0.097098      -0.003093
                          1      10    4fxz2             2.441624       2.311546
                                                         0.806764       1.289022
                                                         0.283960       0.094199
                                                         0.097098      -0.001786
                          1      10    4fy3              2.441624       1.033755
                                                         0.806764       0.576468
                                                         0.283960       0.042127
                                                         0.097098      -0.000799
                          1      10    4fy2z             2.441624       2.311546
                                                         0.806764       1.289022
                                                         0.283960       0.094199
                                                         0.097098      -0.001786
                          1      10    4fyz2             2.441624       2.311546
                                                         0.806764       1.289022
                                                         0.283960       0.094199
                                                         0.097098      -0.001786
                          1      10    4fz3              2.441624       1.033755
                                                         0.806764       0.576468
                                                         0.283960       0.042127
                                                         0.097098      -0.000799

                          2       1    1s         

     AE Potential information for                                            ALL

       Description:                                       All-electron potential
                                          Krack, Parrinello, PCCP 2, 2105 (2000)

       Gaussian exponent of the core charge distribution:               4.109048
       Electronic configuration (s p d ...):                           4   2   0

  2. Atomic kind: H                                     Number of atoms:       4

     Orbital Basis Set                                       TZVPP-MOLOPT-GGA-ae

       Number of orbital shell sets:                                           1
       Number of orbital shells:                                               6
       Number of primitive Cartesian functions:                                5
       Number of Cartesian basis functions:                                   15
       Number of spherical basis functions:                                   14
       Norm type:                                                              2

       Normalised Cartesian orbitals:

                        Set   Shell   Orbital            Exponent    Coefficient

                          1       1    1s               34.177738      -6.423540
                                                         4.947701      -0.270539
                                                         1.065127       0.831136
                                                         0.293823      -0.051765
                                                         0.091371      -0.049397

                          1       2    2s               34.177738       3.211471
                                                         4.947701       0.528758
                                                         1.065127       0.154529
                                                         0.293823       0.227881
                                                         0.091371      -0.041080

                          1       3    3s               34.177738      -1.131577
                                                         4.947701      -0.040048
                                                         1.065127       0.164523
                                                         0.293823       0.077306
                                                         0.091371       0.076395

                          1       4    2px              34.177738     -11.084238
                                                         4.947701       1.341091
                                                         1.065127       1.416453
                                                         0.293823      -0.007684
                                                         0.091371       0.008886
                          1       4    2py              34.177738     -11.084238
                                                         4.947701       1.341091
                                                         1.065127       1.416453
                                                         0.293823      -0.007684
                                                         0.091371       0.008886
                          1       4    2pz              34.177738     -11.084238
                                                         4.947701       1.341091
                                                         1.065127       1.416453
                                                         0.293823      -0.007684
                                                         0.091371       0.008886

                          1       5    3px              34.177738       9.643751
                                                         4.947701      -0.549928
                                                         1.065127       0.106963
                                                         0.293823       0.330130
                                                         0.091371      -0.013062
                          1       5    3py              34.177738       9.643751
                                                         4.947701      -0.549928
                                                         1.065127       0.106963
                                                         0.293823       0.330130
                                                         0.091371      -0.013062
                          1       5    3pz              34.177738       9.643751
                                                         4.947701      -0.549928
                                                         1.065127       0.106963
                                                         0.293823       0.330130
                                                         0.091371      -0.013062

                          1       6    3dx2             34.177738       9.702470
                                                         4.947701      -1.124420
                                                         1.065127       1.617163
                                                         0.293823       0.052231
                                                         0.091371      -0.004737
                          1       6    3dxy             34.177738      16.805171
                                                         4.947701      -1.947552
                                                         1.065127       2.801009
                                                         0.293823       0.090468
                                                         0.091371      -0.008204
                          1       6    3dxz             34.177738      16.805171
                                                         4.947701      -1.947552
                                                         1.065127       2.801009
                                                         0.293823       0.090468
                                                         0.091371      -0.008204
                          1       6    3dy2             34.177738       9.702470
                                                         4.947701      -1.124420
                                                         1.065127       1.617163
                                                         0.293823       0.052231
                                                         0.091371      -0.004737
                          1       6    3dyz             34.177738      16.805171
                                                         4.947701      -1.947552
                                                         1.065127       2.801009
                                                         0.293823       0.090468
                                                         0.091371      -0.008204
                          1       6    3dz2             34.177738       9.702470
                                                         4.947701      -1.124420
                                                         1.065127       1.617163
                                                         0.293823       0.052231
                                                         0.091371      -0.004737

     RI Auxiliary Basis Set                                    aug-cc-pV5Z-OPTRI

       Number of orbital shell sets:                                          17
       Number of orbital shells:                                              17
       Number of primitive Cartesian functions:                               17
       Number of Cartesian basis functions:                                  115
       Number of spherical basis functions:                                   81
       Norm type:                                                              2

       Normalised Cartesian orbitals:

                        Set   Shell   Orbital            Exponent    Coefficient

                          1       1    1s                0.306678       0.293712

                          2       1    1fx3              0.582788       0.436871
                          2       1    1fx2y             0.582788       0.976873
                          2       1    1fx2z             0.582788       0.976873
                          2       1    1fxy2             0.582788       0.976873
                          2       1    1fxyz             0.582788       1.691994
                          2       1    1fxz2             0.582788       0.976873
                          2       1    1fy3              0.582788       0.436871
                          2       1    1fy2z             0.582788       0.976873
                          2       1    1fyz2             0.582788       0.976873
                          2       1    1fz3              0.582788       0.436871

                          3       1    1dx2              0.740674       0.973323
                          3       1    1dxy              0.740674       1.685844
                          3       1    1dxz              0.740674       1.685844
                          3       1    1dy2              0.740674       0.973323
                          3       1    1dyz              0.740674       1.685844
                          3       1    1dz2              0.740674       0.973323

                          4       1    1s                0.854346       0.633338

                          5       1    1px               0.977704       1.385796
                          5       1    1py               0.977704       1.385796
                          5       1    1pz               0.977704       1.385796

                          6       1    1gx4              1.260673       2.104225
                          6       1    1gx3y             1.260673       5.567256
                          6       1    1gx3z             1.260673       5.567256
                          6       1    1gx2y2            1.260673       7.187297
                          6       1    1gx2yz            1.260673      12.448763
                          6       1    1gx2z2            1.260673       7.187297
                          6       1    1gxy3             1.260673       5.567256
                          6       1    1gxy2z            1.260673      12.448763
                          6       1    1gxyz2            1.260673      12.448763
                          6       1    1gxz3             1.260673       5.567256
                          6       1    1gy4              1.260673       2.104225
                          6       1    1gy3z             1.260673       5.567256
                          6       1    1gy2z2            1.260673       7.187297
                          6       1    1gyz3             1.260673       5.567256
                          6       1    1gz4              1.260673       2.104225

                          7       1    1fx3              1.313322       2.718252
                          7       1    1fx2y             1.313322       6.078196
                          7       1    1fx2z             1.313322       6.078196
                          7       1    1fxy2             1.313322       6.078196
                          7       1    1fxyz             1.313322      10.527744
                          7       1    1fxz2             1.313322       6.078196
                          7       1    1fy3              1.313322       2.718252
                          7       1    1fy2z             1.313322       6.078196
                          7       1    1fyz2             1.313322       6.078196
                          7       1    1fz3              1.313322       2.718252

                          8       1    1dx2              1.868623       4.915553
                          8       1    1dxy              1.868623       8.513988
                          8       1    1dxz              1.868623       8.513988
                          8       1    1dy2              1.868623       4.915553
                          8       1    1dyz              1.868623       8.513988
                          8       1    1dz2              1.868623       4.915553

                          9       1    1s                2.242991       1.306263

                         10       1    1hx5              2.510965      14.785170
                         10       1    1hx4y             2.510965      44.355509
                         10       1    1hx4z             2.510965      44.355509
                         10       1    1hx3y2            2.510965      67.754159
                         10       1    1hx3yz            2.510965     117.353645
                         10       1    1hx3z2            2.510965      67.754159
                         10       1    1hx2y3            2.510965      67.754159
                         10       1    1hx2y2z           2.510965     151.502904
                         10       1    1hx2yz2           2.510965     151.502904
                         10       1    1hx2z3            2.510965      67.754159
                         10       1    1hxy4             2.510965      44.355509
                         10       1    1hxy3z            2.510965     117.353645
                         10       1    1hxy2z2           2.510965     151.502904
                         10       1    1hxyz3            2.510965     117.353645
                         10       1    1hxz4             2.510965      44.355509
                         10       1    1hy5              2.510965      14.785170
                         10       1    1hy4z             2.510965      44.355509
                         10       1    1hy3z2            2.510965      67.754159
                         10       1    1hy2z3            2.510965      67.754159
                         10       1    1hyz4             2.510965      44.355509
                         10       1    1hz5              2.510965      14.785170

                         11       1    1px               2.624145       4.760744
                         11       1    1py               2.624145       4.760744
                         11       1    1pz               2.624145       4.760744

                         12       1    1gx4              3.525409      35.584558
                         12       1    1gx3y             3.525409      94.147891
                         12       1    1gx3z             3.525409      94.147891
                         12       1    1gx2y2            3.525409     121.544404
                         12       1    1gx2yz            3.525409     210.521084
                         12       1    1gx2z2            3.525409     121.544404
                         12       1    1gxy3             3.525409      94.147891
                         12       1    1gxy2z            3.525409     210.521084
                         12       1    1gxyz2            3.525409     210.521084
                         12       1    1gxz3             3.525409      94.147891
                         12       1    1gy4              3.525409      35.584558
                         12       1    1gy3z             3.525409      94.147891
                         12       1    1gy2z2            3.525409     121.544404
                         12       1    1gyz3             3.525409      94.147891
                         12       1    1gz4              3.525409      35.584558

                         13       1    1fx3              3.758818      28.961421
                         13       1    1fx2y             3.758818      64.759707
                         13       1    1fx2z             3.758818      64.759707
                         13       1    1fxy2             3.758818      64.759707
                         13       1    1fxyz             3.758818     112.167102
                         13       1    1fxz2             3.758818      64.759707
                         13       1    1fy3              3.758818      28.961421
                         13       1    1fy2z             3.758818      64.759707
                         13       1    1fyz2             3.758818      64.759707
                         13       1    1fz3              3.758818      28.961421

                         14       1    1dx2              4.580832      23.608158
                         14       1    1dxy              4.580832      40.890528
                         14       1    1dxz              4.580832      40.890528
                         14       1    1dy2              4.580832      23.608158
                         14       1    1dyz              4.580832      40.890528
                         14       1    1dz2              4.580832      23.608158

                         15       1    1px               6.794656      15.636856
                         15       1    1py               6.794656      15.636856
                         15       1    1pz               6.794656      15.636856

                         16       1    1s                7.257089       3.151243

                         17       1    1px              22.632735      70.365761
                         17       1    1py              22.632735      70.365761
                         17       1    1pz              22.632735      70.365761

       Atomic covalent radius [Angstrom]:                                  0.320

       Atomic van der Waals radius [Angstrom]:                             1.090

     The atoms of this atomic kind are PAW atoms (GAPW):
       Hard Gaussian function radius:                                      1.200
       Rho0 radius:                                                        1.200
       Maximum GTO radius used for PAW projector construction:            24.566

     GAPW Soft Basis Set                                TZVPP-MOLOPT-GGA-ae_soft

[...]
 qs_energies                          1  2.0    0.001    0.001  391.737  391.738
 qs_energies_properties               1  3.0    0.000    0.000  255.933  255.933
 tddfpt                               1  4.0    0.000    0.000  255.933  255.933
 tddfpt_energies                      1  5.0    0.000    0.001  255.885  255.885
 tddfpt_davidson_solver               1  6.0    0.002    0.004  253.482  253.482
 tddfpt_compute_Aop_evects           10  7.0    0.000    0.000  249.869  249.869
 fhxc_kernel                         10  8.0    0.009    0.010  214.616  214.617
 scf_env_do_scf                       1  3.0    0.000    0.000  134.459  134.465
 scf_env_do_scf_inner_loop           56  4.0    0.002    0.004  134.459  134.465
 qs_ks_update_qs_env                 56  5.0    0.000    0.000  116.150  116.190
 rebuild_ks_matrix                   56  6.0    0.000    0.000  116.144  116.183
 qs_ks_build_kohn_sham_matrix        56  7.0    0.008    0.010  116.144  116.183
 integrate_four_center              456  9.9   10.898   18.390   99.729   99.882
 tddfpt_apply_coulomb               200  9.0    0.004    0.006   93.142   94.205
 pw_poisson_solve                   256  9.6    2.201    2.651   91.284   92.273
 fft_wrap_pw1pw2                   5190 11.2    0.085    0.123   89.837   91.280
 fft_wrap_pw1pw2_250               3648 12.2    2.501    2.737   85.446   86.990
 fft3d_ps                          5190 13.2   24.087   25.644   79.022   80.915
 hfx_ks_matrix                       56  8.0    0.002    0.002   70.932   70.965
 mp_alltoall_z22v                  5190 15.2   48.933   58.689   48.933   58.689
 ps_wavelet_solve                   256 10.6   26.125   37.827   56.119   56.404
 integrate_four_center_main         456 10.9    0.451    1.746   50.643   55.708
 integrate_four_center_bin        79666 11.9   50.192   55.206   50.192   55.206
 qs_rho_update_rho_low              258  8.1    0.003    0.003   51.011   51.019
 calculate_rho_elec                 258  9.1    0.563    0.603   43.417   43.426
 x_to_yz                           2108 13.8    2.461    2.786   33.548   35.632
 mp_alltoall_d54                    256 11.6   13.954   34.915   13.954   34.915
 xc_pw_derive                      1539 11.0    0.015    0.020   32.494   33.831
 tddfpt_apply_hfx                    10  8.0    0.004    0.005   33.686   33.686
 tddfpt_apply_xc_analytic           200  9.0    0.138    0.176   31.107   31.272
 integrate_v_rspace                 256  9.0    0.006    0.007   30.051   30.427
 prepare_gapw_den                   257  8.8    0.005    0.006   29.271   29.440
 density_rs2pw                      258 10.1    0.015    0.018   27.633   29.309
 tddft_hfx_matrix                   400  9.0    0.011    0.012   28.812   28.935
 mp_sync                           2395 11.6   13.945   25.807   13.945   25.807
 yz_to_x                           2054 14.6    1.863    2.403   19.532   25.219
 potential_pw2rs                    256 10.0    0.054    0.071   23.851   24.306
 xc_pw_divergence                   256 10.8    0.008    0.010   21.784   22.877
 transfer_pw2rs                    1281 10.9    0.017    0.025   21.945   22.324
 transfer_rs2pw                    1290 11.0    0.034    0.062   20.573   22.197
 calc_screening_functions             1 10.0   16.707   18.278   17.139   18.705
 mp_alltoall_d45                    257 11.6   15.886   18.431   15.886   18.431
 xc_calc_2nd_deriv_analytical      1000 10.1    0.969    1.155   18.256   18.352
 mp_waitany                       64806 12.9   14.910   17.750   14.910   17.750
 grid_collocate_task_list           258 10.1   14.651   17.171   14.651   17.171
 gaVxcgb_GC                         512  9.8    0.426   16.896    0.426   16.896
 calculate_rho_atom                 771  9.8    2.256   16.450    2.256   16.451
 mp_alltoall_d11v                 17256 11.7   12.228   16.354   12.228   16.354
 calculate_xc_2nd_deriv_atom        200  9.0    0.090    2.146    0.454   15.839
 mp_sum_dv                        28520  8.9   14.804   15.261   14.804   15.261
 mp_sum_dm                        10901 10.2   12.695   13.262   12.695   13.262
 integrate_vhg0_rspace              256  9.6    0.652    0.768   13.052   13.254
 transfer_pw2rs_250                 513 11.8    3.591    4.138   11.597   12.250
 transfer_rs2pw_250                 516 11.9    3.895    4.498   10.229   11.984
 put_rho0_on_grid                   257  9.8    0.598    0.772   11.460   11.627
 mp_sum_d                          6267  7.6    7.543   10.209    7.543   10.209
 mp_waitall_1                    544234 13.2    7.733    9.848    7.733    9.848
 qs_vxc_create                       56  8.0    0.001    0.001    9.578    9.578
 xc_vxc_pw_create                    56  9.0    0.157    0.179    9.577    9.577
 cp_dbcsr_sm_fm_multiply           1246  8.6    0.026    0.029    9.203    9.354
 calculate_rho_atom_coeff           258  9.1    0.289    0.445    7.590    7.592
 sum_up_and_integrate                56  8.0    0.001    0.001    6.266    6.292
 rs_gather_matrices                 256 10.0    0.025    0.032    5.863    6.223
 dbcsr_complete_redistribute       4085 10.5    0.175    0.245    5.930    6.088
 grid_integrate_task_list           256 10.0    0.330    6.006    0.330    6.006
 transfer_rs2pw_30                  258 12.1    2.432    2.533    5.538    5.804
 transfer_pw2rs_30                  256 12.0    2.347    2.540    5.333    5.663
 xc_rho_set_and_dset_create          57 10.0    0.130    0.171    4.419    4.754
 mp_sendrecv_dv                  110940 13.1    4.132    4.443    4.132    4.443
 copy_dbcsr_to_fm                  1324  9.4    0.018    0.020    4.097    4.257
 gspace_mixing                       55  5.0    0.120    0.128    4.218    4.219
 copy_fm_to_dbcsr                  2759  9.6    0.013    0.014    3.947    4.109
 transfer_pw2rs_90                  256 12.0    0.760    0.952    3.347    4.081
 calculate_vxc_atom                  56  8.0    0.032    0.319    3.997    3.998
 pw_scatter_p                      2620 12.9    3.339    3.992    3.339    3.992
 mp_isendrecv_dv                 306160 12.3    1.837    3.780    1.837    3.780
 dbcsr_multiply_generic            1702 10.4    0.077    0.084    3.573    3.770
 cp_fm_syevd                        108  7.2    0.001    0.001    3.564    3.570
 transfer_rs2pw_90                  258 12.1    0.787    1.026    3.123    3.487
 cp_fm_redistribute_end             108  8.2    1.762    3.430    1.772    3.436
 pw_gather_p                       2570 13.5    2.827    3.400    2.827    3.400
 cp_fm_syevd_base                   108  8.2    1.656    3.323    1.656    3.323
 cp2k_distribution_to_z_slices      256 10.6    1.196    1.308    2.593    3.180
 broyden_mixing                      55  6.0    2.934    3.024    3.034    3.079
 rs_grid_zero                      1283 12.0    2.862    3.071    2.862    3.071
 qs_scf_new_mos                      56  5.0    0.001    0.001    2.994    3.008
 fft_wrap_pw1pw2_90                 514 12.1    0.078    0.147    2.637    2.988
 Vh_1c_gg_integrals                 256  9.6    0.079    2.292    2.386    2.986
 integrate_four_center_getP         456 10.9    0.212    0.238    2.843    2.893
 mp_alltoall_i11v                 13580 11.5    2.829    2.832    2.829    2.832
 cp_dbcsr_sm_fm_multiply_core      1246  9.6    0.003    0.004    2.547    2.738
 pw_derive                         2307 11.9    2.522    2.736    2.522    2.736
 integrate_four_center_dist_KS      456 10.9    0.192    0.226    2.604    2.611
 eigensolver_symm                    56  6.0    0.002    0.002    2.460    2.464
 multiply_cannon                   1702 11.4    0.212    0.218    2.165    2.331
 mp_sum_l                          6450 10.7    1.850    2.288    1.850    2.288
 dbcsr_desymmetrize_deep           1325 10.4    0.037    0.045    1.988    2.146
 create_qs_kind_set                   1  2.0    0.000    0.000    2.144    2.145
 read_qs_kind                         3  3.0    1.165    1.183    2.144    2.145
 integrate_four_center_load         456 10.9    0.001    0.002    1.586    2.015
 hfx_load_balance                     1 11.0    0.000    0.000    1.585    2.013
 tddfpt_orthonormalize_psi1_psi      11  6.9    0.029    0.031    2.012    2.012
 hfx_load_balance_range               1 12.0    0.000    0.000    1.560    1.989
 mp_irecv_dm3                      9258 12.9    0.745    1.982    0.745    1.982
 multiply_cannon_loop              1702 12.4    0.395    0.414    1.668    1.896
 pw_copy                           3445 11.0    1.722    1.889    1.722    1.889
 pw_copy_to_array                  2570 13.5    1.190    1.810    1.190    1.810
 tddfpt_print_nto_analysis            1  6.0    0.002    0.003    1.800    1.801
 mp_isend_dv                     175934 13.9    1.016    1.763    1.016    1.763
 transfer_pw2rs_10                  256 12.0    0.612    0.752    1.650    1.745
 cp_dbcsr_plus_fm_fm_t              256  8.6    0.004    0.004    1.680    1.702
 transfer_rs2pw_10                  258 12.1    0.623    0.675    1.649    1.673
 parallel_gemm_fm                  1784  8.3    0.002    0.003    1.638    1.660
 parallel_gemm_fm_gemm             1784  9.3    0.002    0.003    1.636    1.658
 cp_fm_gemm                        1784 10.3    1.634    1.655    1.634    1.655
 tddfpt_apply_energy_diff            10  8.0    0.001    0.001    1.567    1.567
 pw_poisson_set                     257 10.5    0.006    0.008    1.521    1.548
 tddfpt_compute_residual_vects        9  7.0    0.001    0.001    1.373    1.374
 calculate_rho0_atom                771  9.8    1.292    1.344    1.292    1.344
 update_ks_atom                     256  8.8    0.188    0.376    1.143    1.331
 mp_alltoall_i22                   5410 11.5    1.012    1.300    1.012    1.300
 mp_isend_dm3                      9258 12.9    0.515    1.287    0.515    1.287
 cp_fm_geeig                         20  7.0    0.001    0.001    1.221    1.222
 mp_alltoall_z11v                  1028 15.1    1.132    1.181    1.132    1.181
 xc_functional_eval                1081 10.9    0.001    0.004    0.636    1.180
 pw_integral_ab_c1d_c1d_gs          256 10.6    0.832    0.840    1.086    1.177
 pbe_lda_eval                      1081 11.9    0.636    1.176    0.636    1.176
 fft_wrap_pw1pw2_30                 514 12.1    0.015    0.016    1.078    1.121
 pw_axpy                           2768 10.9    0.951    1.070    0.951    1.070
 make_m2s                          3404 11.4    0.067    0.071    0.965    1.042
 pw_copy_from_array                2620 12.9    0.776    1.000    0.776    1.000
 parser_read_line                248721  4.0    0.082    0.089    0.979    0.992
 mp_bcast_dm                       7168  9.8    0.956    0.984    0.956    0.984
 hybrid_alltoall_any               4729 13.5    0.044    0.056    0.931    0.983
 pw_zero                           2942 10.6    0.841    0.959    0.841    0.959
 qs_energies_init_hamiltonians        1  3.0    0.000    0.000    0.912    0.912
 parser_read_line_low               267  5.0    0.073    0.447    0.896    0.910
 mp_max_i                           727  5.2    0.330    0.908    0.330    0.908
 build_core_hamiltonian_matrix        1  4.0    0.000    0.000    0.901    0.901
 overlap_condnum                      1  5.0    0.000    0.000    0.894    0.899
 make_images                       3404 12.4    0.193    0.201    0.797    0.864
 broadcast_input_information        267  6.0    0.175    0.186    0.823    0.857
 powell_optimize                 313929 11.0    0.785    0.846    0.785    0.846
 yz_to_xz                           512 14.0    0.046    0.052    0.787    0.829
 calc_pair_dist_radii                 1 10.0    0.375    0.400    0.728    0.790
 arnoldi_conjugate_gradient           5  6.0    0.017    0.020    0.754    0.755
 pw_poisson_rebuild                 256 10.6    0.000    0.000    0.610    0.633
 ps_wavelet_create                    1 10.0    0.000    0.000    0.609    0.633
 RS_z_slice_distribution              1 11.0    0.499    0.595    0.609    0.633
 fft_wrap_pw1pw2_10                 514 12.1    0.005    0.005    0.592    0.603
 multiply_cannon_metrocomm3       61272 13.4    0.100    0.103    0.310    0.584
 offload_free_buffer                264 10.3    0.369    0.567    0.369    0.567
 cp_fm_trace_a1b1t1_aa            20310  8.0    0.096    0.104    0.503    0.505
 multiply_cannon_metrocomm4       57868 13.4    0.171    0.186    0.350    0.489
 mp_bcast_i_src                    1068  7.0    0.321    0.458    0.321    0.458
 dbcsr_sym_matrix_vector_mult      2544  7.0    0.040    0.045    0.392    0.457
 mp_rank_compare                   5190 14.2    0.424    0.450    0.424    0.450
 xz_to_yz                           516 14.1    0.030    0.036    0.422    0.430
 multiply_cannon_metrocomm1       61272 13.4    0.071    0.074    0.215    0.422
 init_scf_run                         1  3.0    0.000    0.000    0.374    0.374
 dbcsr_finalize                   11855 11.4    0.046    0.090    0.215    0.371
 mp_bcast_am_src                    267  7.0    0.295    0.347    0.317    0.371
 xc_2nd_deriv_of_r                  800 10.0    0.002    0.061    0.012    0.362
 make_images_sizes                 3404 13.4    0.004    0.005    0.327    0.342
 calculate_dm_sparse                 56  6.0    0.000    0.001    0.327    0.339
 mp_alltoall_i44                   3404 14.4    0.323    0.338    0.323    0.338
 prepare_dr1dr                     1000 11.1    0.298    0.336    0.298    0.336
 multiply_cannon_metrocomm2       56166 13.4    0.167    0.179    0.301    0.321
 scf_env_initial_rho_setup            1  4.0    0.000    0.000    0.318    0.319
 tddfpt_construct_ground_state_       1  6.0    0.000    0.000    0.312    0.313
 qs_init_subsys                       1  2.0    0.007    0.011    0.308    0.308
 qs_env_setup                         1  3.0    0.000    0.000    0.283    0.288
 qs_env_rebuild_pw_env                2  3.5    0.000    0.000    0.281    0.287
 pw_env_rebuild                       1  5.0    0.001    0.001    0.281    0.287
 scale_and_distribute               512 11.6    0.264    0.285    0.264    0.285
 mp_cart_sub                       2652 11.4    0.281    0.283    0.281    0.283
 multiply_cannon_multrec          61272 13.4    0.090    0.268    0.097    0.276
 pw_grid_setup                        4  6.0    0.000    0.000    0.259    0.264
 pw_grid_setup_internal               4  7.0    0.003    0.005    0.259    0.264
 dbcsr_add_d                       3857  7.0    0.004    0.004    0.034    0.230
 dbcsr_add_anytype                 3857  8.0    0.005    0.030    0.031    0.226
 mp_cart_create                    2097 10.8    0.194    0.221    0.195    0.223
 rs_scatter_matrices                258 10.1    0.003    0.008    0.213    0.223
 dbcsr_merge_all                   9925 12.4    0.093    0.151    0.123    0.211
 dbcsr_create_new                 45066 11.4    0.151    0.157    0.197    0.206
 mp_allgather_i34                  1702 12.4    0.171    0.202    0.171    0.202
 make_images_data                  3404 13.4    0.043    0.060    0.107    0.192
 mp_irecv_dv                     178426 13.9    0.131    0.192    0.131    0.192
 tddfpt_compute_ritz_vects           10  7.0    0.009    0.014    0.179    0.184
 dbcsr_col_vec_to_rep_row          2544  8.0    0.018    0.021    0.125    0.181
 dbcsr_rep_row_to_rep_col_vec      2544  8.0    0.013    0.016    0.072    0.168
 cp_fm_redistribute_start           108  8.2    0.108    0.116    0.135    0.151
 cp_fm_cholesky_decompose            20  8.0    0.142    0.142    0.142    0.142
 rs_grid_create                     262 10.5    0.001    0.002    0.011    0.130
 cp_fm_triangular_multiply           60  8.0    0.129    0.130    0.129    0.130
 pw_scale                           624  9.5    0.112    0.129    0.112    0.129
 offload_create_buffer              264 11.4    0.009    0.129    0.009    0.129
 dbcsr_special_finalize            8510 13.4    0.033    0.035    0.096    0.127
 dbcsr_iterator_start             59084 10.5    0.071    0.097    0.087    0.124
 tddfpt_orthogonalize_psi1_psi0      11  6.9    0.000    0.001    0.111    0.121
 mp_bcast_dv                       2652  9.0    0.060    0.119    0.060    0.119
 init_rho_atom                        1  3.0    0.000    0.000    0.011    0.113
 cube_transpose_2                   516 14.1    0.010    0.011    0.102    0.111
 create_harmonics_atom                3  4.0    0.008    0.110    0.008    0.110
 cp_fm_triangular_invert             20  8.0    0.108    0.109    0.108    0.109
 dbcsr_copy                       14344  8.5    0.048    0.055    0.094    0.107
 mp_isend_iv                     122878 14.4    0.092    0.103    0.092    0.103
 create_kernel_env                    1  6.0    0.000    0.000    0.092    0.102
 xc_prep_2nd_deriv                    1  7.0    0.000    0.000    0.092    0.102
 cube_transpose_1                   512 14.0    0.008    0.010    0.094    0.100
 copy_fm_to_dbcsr_bc               2759 10.6    0.032    0.034    0.092    0.097
 cp_fm_symm                          56  7.0    0.080    0.084    0.080    0.084
 dbcsr_merge_single_wm             8510 14.4    0.042    0.052    0.051    0.083
 dbcsr_iterator_stop              59084 10.5    0.052    0.067    0.063    0.081
 dbcsr_work_create                19760 12.5    0.038    0.053    0.058    0.081
 dbcsr_destroy                    39926 10.9    0.051    0.054    0.074    0.080
 dbcsr_make_images_dense            912 11.8    0.017    0.018    0.046    0.079
 dbcsr_data_new                  136697 12.6    0.061    0.074    0.061    0.074
 dbcsr_data_release              219045 12.4    0.059    0.073    0.059    0.073
 pw_grid_sort                         4  8.0    0.044    0.045    0.068    0.070
 cp_fm_power                          1  6.0    0.000    0.001    0.069    0.069
 tddfpt_is_nonorthogonal_psi1_p       9  7.0    0.000    0.001    0.068    0.068
 vxc_of_r_new                       224  9.0    0.000    0.010    0.002    0.068
 dbcsr_work_destroy_all           19760 13.5    0.034    0.049    0.046    0.066
 cp_fm_write_unformatted             43  7.5    0.047    0.056    0.048    0.065
 mp_cart_rank                    221652 11.1    0.059    0.063    0.059    0.063
 mp_irecv_iv                     127862 14.4    0.051    0.062    0.051    0.062
 mixing_init                          1  5.0    0.041    0.061    0.060    0.061
 scf_post_calculation_gpw             1  3.0    0.000    0.000    0.058    0.059
 write_available_results              1  4.0    0.000    0.000    0.058    0.059
 write_mo_free_results                1  5.0    0.003    0.004    0.058    0.059
 setup_buffer_matrices             3404 12.4    0.013    0.015    0.044    0.051
 dbcsr_make_dense_low              2280 12.8    0.011    0.012    0.018    0.049
 mp_bcast_iv                        292  7.5    0.023    0.047    0.023    0.047
 mp_sum_im                          113  9.0    0.039    0.046    0.039    0.046
 tddfpt_write_restart                 2  6.5    0.000    0.003    0.041    0.041
 -------------------------------------------------------------------------------

 The number of warnings for this run is : 1
 
 -------------------------------------------------------------------------------
  **** **** ******  **  PROGRAM ENDED AT                 2025-04-02 17:30:22.848
 ***** ** ***  *** **   PROGRAM RAN ON                              i06r01c06s12
 **    ****   ******    PROGRAM RAN BY                                   di38fab
 ***** **    ** ** **   PROGRAM PROCESS ID                               1231578
  **** **  *******  **  PROGRAM STOPPED IN /hppfs/scratch/04/di38fab/07_MOL_non_
                                           aug/05_MOL_non_aug/05_MOL/aUKBqsEOTmq
                                           69kFe5R_nOg/5k_set_final_qzvp/HIRSUX/
                                           TZVPP/TDDFT
