SIRIUS 7.6.1, git hash: https://api.github.com/repos/electronic-structure/SIRIUS/git/ref/tags/v7.6.1
 DBCSR| CPU Multiplication driver                                           XSMM (U)
 DBCSR| Multrec recursion limit                                              512 (U)
 DBCSR| Multiplication stack size                                           1000 (D)
 DBCSR| Maximum elements for images                                    UNLIMITED (U)
 DBCSR| Multiplicative factor virtual images                                   1 (U)
 DBCSR| Use multiplication densification                                       T (D)
 DBCSR| Multiplication size stacks                                             3 (U)
 DBCSR| Use memory pool for CPU allocation                                     F (U)
 DBCSR| Number of 3D layers                                               SINGLE (U)
 DBCSR| Use MPI memory allocation                                              F (U)
 DBCSR| Use RMA algorithm                                                      F (U)
 DBCSR| Use Communication thread                                               T (U)
 DBCSR| Communication thread load                                             75 (D)
 DBCSR| MPI: My process id                                                     0
 DBCSR| MPI: Number of processes                                             128
 DBCSR| OMP: Current number of threads                                         4
 DBCSR| OMP: Max number of threads                                             4
 DBCSR| Split modifier for TAS multiplication algorithm                  1.0E+00 (U)


  **** **** ******  **  PROGRAM STARTED AT               2025-04-21 15:20:19.890
 ***** ** ***  *** **   PROGRAM STARTED ON                              n2cn0172
 **    ****   ******    PROGRAM STARTED BY                              metdyn02
 ***** **    ** ** **   PROGRAM PROCESS ID                               2960296
  **** **  *******  **  PROGRAM STARTED IN /scratch/hpc-prf-metdyn/metdyn02_Remi
                                           /10_MOL/05_MOL/W4-11+ALK/ketene/TZVP/
                                           TDDFT/RILIM

 CP2K| version string:                 CP2K version 2025.1 (Development Version)
 CP2K| source code revision number:                                  git:4803c37
 CP2K| cp2kflags: omp libint fftw3 libxc libgrpp elpa parallel scalapack mpi_f08
 CP2K|             cosma xsmm plumed2 spglib sirius libvori libbqb libvdwxc hdf5
 CP2K| is freely available from                            https://www.cp2k.org/
 CP2K| Program compiled at                         Thu Apr 10 12:05:05 CEST 2025
 CP2K| Program compiled on                                              n2login1
 CP2K| Program compiled for                                                local
 CP2K| Data directory path    /opt/software/pc2/EB-SW/software/CP2K/2024.1-foss-
 CP2K| Input file name                                                    GW.inp

 GLOBAL| Force Environment number                                              1
 GLOBAL| Basis set file name            /scratch/hpc-prf-metdyn/metdyn02_Remi/BA
 GLOBAL| Potential file name            /pc2/groups/hpc-prf-metdyn/metdyn02_Remi
 GLOBAL| MM Potential file name                                     MM_POTENTIAL
 GLOBAL| Coordinate file name                                      __STD_INPUT__
 GLOBAL| Method name                                                        CP2K
 GLOBAL| Project name                                                       MoS2
 GLOBAL| Run type                                                         ENERGY
 GLOBAL| FFT library                                                       FFTW3
 GLOBAL| Diagonalization library                                            ELPA
 GLOBAL| DGEMM library                                                      BLAS
 GLOBAL| Minimum number of eigenvectors for ELPA usage                        16
 GLOBAL| Orthonormality check for eigenvectors                          DISABLED
 GLOBAL| Matrix multiplication library                                     COSMA
 GLOBAL| All-to-all communication in single precision                          F
 GLOBAL| FFTs using library dependent lengths                                  F
 GLOBAL| Grid backend                                                       AUTO
 GLOBAL| Global print level                                               MEDIUM
 GLOBAL| MPI I/O enabled                                                       T
 GLOBAL| Total number of message passing processes                           128
 GLOBAL| Number of threads for this process                                    4
 GLOBAL| This output is from process                                           0
 GLOBAL| OpenMP stack size per thread (OMP_STACKSIZE)                    default
 GLOBAL| CPU model name                          AMD EPYC 7763 64-Core Processor
 GLOBAL| CPUID                                                              1002

 MEMORY| system memory details [Kb]
 MEMORY|                        rank 0           min           max       average
 MEMORY| MemTotal            263899264     263899260     263899264     263899263
 MEMORY| MemFree             245035236     242825804     245035236     244136325
 MEMORY| Buffers                152768        143828        196996        160374
 MEMORY| Cached                5366764       5366764       7625628       6125842
 MEMORY| Slab                  2566932       2372040       2745448       2571476
 MEMORY| SReclaimable           812020        508148        830860        679760
 MEMORY| MemLikelyFree       251366788     250889064     251366788     251102301


 *** Fundamental physical constants (SI units) ***

 *** Literature: B. J. Mohr and B. N. Taylor,
 ***             CODATA recommended values of the fundamental physical
 ***             constants: 2006, Web Version 5.1
 ***             http://physics.nist.gov/constants

 Speed of light in vacuum [m/s]                             2.99792458000000E+08
 Magnetic constant or permeability of vacuum [N/A**2]       1.25663706143592E-06
 Electric constant or permittivity of vacuum [F/m]          8.85418781762039E-12
 Planck constant (h) [J*s]                                  6.62606896000000E-34
 Planck constant (h-bar) [J*s]                              1.05457162825177E-34
 Elementary charge [C]                                      1.60217648700000E-19
 Electron mass [kg]                                         9.10938215000000E-31
 Electron g factor [ ]                                     -2.00231930436220E+00
 Proton mass [kg]                                           1.67262163700000E-27
 Fine-structure constant                                    7.29735253760000E-03
 Rydberg constant [1/m]                                     1.09737315685270E+07
 Avogadro constant [1/mol]                                  6.02214179000000E+23
 Boltzmann constant [J/K]                                   1.38065040000000E-23
 Atomic mass unit [kg]                                      1.66053878200000E-27
 Bohr radius [m]                                            5.29177208590000E-11

 *** Conversion factors ***

 [u] -> [a.u.]                                              1.82288848426455E+03
 [Angstrom] -> [Bohr] = [a.u.]                              1.88972613288564E+00
 [a.u.] = [Bohr] -> [Angstrom]                              5.29177208590000E-01
 [a.u.] -> [s]                                              2.41888432650478E-17
 [a.u.] -> [fs]                                             2.41888432650478E-02
 [a.u.] -> [J]                                              4.35974393937059E-18
 [a.u.] -> [N]                                              8.23872205491840E-08
 [a.u.] -> [K]                                              3.15774647902944E+05
 [a.u.] -> [kJ/mol]                                         2.62549961709828E+03
 [a.u.] -> [kcal/mol]                                       6.27509468713739E+02
 [a.u.] -> [Pa]                                             2.94210107994716E+13
 [a.u.] -> [bar]                                            2.94210107994716E+08
 [a.u.] -> [atm]                                            2.90362800883016E+08
 [a.u.] -> [eV]                                             2.72113838565563E+01
 [a.u.] -> [Hz]                                             6.57968392072181E+15
 [a.u.] -> [1/cm] (wave numbers)                            2.19474631370540E+05
 [a.u./Bohr**2] -> [1/cm]                                   5.14048714338585E+03
 

 CELL_TOP| Volume [angstrom^3]:                                     27000.000000
 CELL_TOP| Vector a [angstrom    30.000     0.000     0.000   |a| =    30.000000
 CELL_TOP| Vector b [angstrom     0.000    30.000     0.000   |b| =    30.000000
 CELL_TOP| Vector c [angstrom     0.000     0.000    30.000   |c| =    30.000000
 CELL_TOP| Angle (b,c), alpha [degree]:                                90.000000
 CELL_TOP| Angle (a,c), beta  [degree]:                                90.000000
 CELL_TOP| Angle (a,b), gamma [degree]:                                90.000000
 CELL_TOP| Numerically orthorhombic:                                         YES
 CELL_TOP| Periodicity                                                      NONE

 GENERATE|  Preliminary Number of Bonds generated:                             0
 GENERATE|  Achieved consistency in connectivity generation.

 CELL| Volume [angstrom^3]:                                         27000.000000
 CELL| Vector a [angstrom]:      30.000     0.000     0.000   |a| =    30.000000
 CELL| Vector b [angstrom]:       0.000    30.000     0.000   |b| =    30.000000
 CELL| Vector c [angstrom]:       0.000     0.000    30.000   |c| =    30.000000
 CELL| Angle (b,c), alpha [degree]:                                    90.000000
 CELL| Angle (a,c), beta  [degree]:                                    90.000000
 CELL| Angle (a,b), gamma [degree]:                                    90.000000
 CELL| Numerically orthorhombic:                                             YES
 CELL| Periodicity                                                          NONE

 CELL_REF| Volume [angstrom^3]:                                     27000.000000
 CELL_REF| Vector a [angstrom    30.000     0.000     0.000   |a| =    30.000000
 CELL_REF| Vector b [angstrom     0.000    30.000     0.000   |b| =    30.000000
 CELL_REF| Vector c [angstrom     0.000     0.000    30.000   |c| =    30.000000
 CELL_REF| Angle (b,c), alpha [degree]:                                90.000000
 CELL_REF| Angle (a,c), beta  [degree]:                                90.000000
 CELL_REF| Angle (a,b), gamma [degree]:                                90.000000
 CELL_REF| Numerically orthorhombic:                                         YES
 CELL_REF| Periodicity                                                      NONE

 *******************************************************************************
 *******************************************************************************
 **                                                                           **
 **     #####                         ##              ##                      **
 **    ##   ##            ##          ##              ##                      **
 **   ##     ##                       ##            ######                    **
 **   ##     ##  ##   ##  ##   #####  ##  ##   ####   ##    #####    #####    **
 **   ##     ##  ##   ##  ##  ##      ## ##   ##      ##   ##   ##  ##   ##   **
 **   ##  ## ##  ##   ##  ##  ##      ####     ###    ##   ######   ######    **
 **    ##  ###   ##   ##  ##  ##      ## ##      ##   ##   ##       ##        **
 **     #######   #####   ##   #####  ##  ##  ####    ##    #####   ##        **
 **           ##                                                    ##        **
 **                                                                           **
 **                                                ... make the atoms dance   **
 **                                                                           **
 **            Copyright (C) by CP2K developers group (2000-2025)             **
 **                      J. Chem. Phys. 152, 194103 (2020)                    **
 **                                                                           **
 *******************************************************************************

 DFT| Spin restricted Kohn-Sham (RKS) calculation                            RKS
 DFT| Multiplicity                                                             1
 DFT| Number of spin states                                                    1
 DFT| Charge                                                                   0
 DFT| Self-interaction correction (SIC)                                       NO
 DFT| Cutoffs: density                                              1.000000E-10
 DFT|          gradient                                             1.000000E-10
 DFT|          tau                                                  1.000000E-10
 DFT|          cutoff_smoothing_range                               0.000000E+00
 DFT| XC density smoothing                                                  NONE
 DFT| XC derivatives                                                          PW

 FUNCTIONAL| PBE:
 FUNCTIONAL| J.P.Perdew, K.Burke, M.Ernzerhof, Phys. Rev. Letter, vol. 77, n 18,
 FUNCTIONAL|  pp. 3865-3868, (1996)sx=0.750sc=1.000{spin unpolarized}           


 QS| Method:                                                                GAPW
 QS| Density plane wave grid type                        NON-SPHERICAL FULLSPACE
 QS| Number of grid levels:                                                    4
 QS| Density cutoff [a.u.]:                                                250.0
 QS| Multi grid cutoff [a.u.]: 1) grid level                               250.0
 QS|                           2) grid level                                83.3
 QS|                           3) grid level                                27.8
 QS|                           4) grid level                                 9.3
 QS| Grid level progression factor:                                          3.0
 QS| Relative density cutoff [a.u.]:                                        50.0
 QS| Interaction thresholds: eps_pgf_orb:                                1.0E-12
 QS|                         eps_filter_matrix:                          0.0E+00
 QS|                         eps_core_charge:                            1.0E-14
 QS|                         eps_rho_gspace:                             1.0E-12
 QS|                         eps_rho_rspace:                             1.0E-12
 QS|                         eps_gvg_rspace:                             1.0E-06
 QS|                         eps_ppl:                                    1.0E-02
 QS|                         eps_ppnl:                                   1.0E-08
 QS| GAPW|      One center basis from orbital basis primitives
 QS| GAPW|                   eps_fit:                                    1.0E-04
 QS| GAPW|                   eps_iso:                                    1.0E-12
 QS| GAPW|                   eps_svd:                                    1.0E-08
 QS| GAPW|                   eps_cpc:                                    1.0E-12
 QS| GAPW|   atom-r-grid: quadrature:                                     GC_LOG
 QS| GAPW|      atom-s-grid:  max l :                                          8
 QS| GAPW|      max_l_rho0 :                                                   2


 ATOMIC KIND INFORMATION

  1. Atomic kind: C                                     Number of atoms:       2

     Orbital Basis Set                                        aug-TZVP-MOLOPT-ae

       Number of orbital shell sets:                                           2
       Number of orbital shells:                                              16
       Number of primitive Cartesian functions:                               13
       Number of Cartesian basis functions:                                   71
       Number of spherical basis functions:                                   56
       Norm type:                                                              2

       Normalised Cartesian orbitals:

                        Set   Shell   Orbital            Exponent    Coefficient

                          1       1    1s                0.040000       0.000000
                                                         0.097098       0.019281
                                                         0.283960       0.027513
                                                         0.806764       0.003692
                                                         2.441624       0.446183
                                                         6.739673       1.752510
                                                        34.417212       0.637474

                          1       2    2s                0.040000       0.000000
                                                         0.097098       0.029117
                                                         0.283960       0.094997
                                                         0.806764       0.362633
                                                         2.441624      -0.104551
                                                         6.739673      -0.288836
                                                        34.417212       1.102934

                          1       3    3s                0.040000       0.000000
                                                         0.097098       0.047046
                                                         0.283960       0.169545
                                                         0.806764      -0.252838
                                                         2.441624      -0.199197
                                                         6.739673      -0.168746
                                                        34.417212      -6.120053

                          1       4    4s                0.040000       0.000000
                                                         0.097098       0.188374
                                                         0.283960      -0.341415
                                                         0.806764       0.091223
                                                         2.441624      -0.053941
                                                         6.739673      -0.401007
                                                        34.417212      -3.786931

                          1       5    5s                0.040000       0.099533
                                                         0.097098      -0.167672
                                                         0.283960      -0.126383
                                                         0.806764       0.030074
                                                         2.441624       0.000000
                                                         6.739673       0.000000
                                                        34.417212       0.000000

                          1       6    2px               0.040000       0.000000
                                                         0.097098       0.005087
                                                         0.283960       0.032186
                                                         0.806764       0.779023
                                                         2.441624       0.695625
                                                         6.739673       2.243109
                                                        34.417212       2.016536
                          1       6    2py               0.040000       0.000000
                                                         0.097098       0.005087
                                                         0.283960       0.032186
                                                         0.806764       0.779023
                                                         2.441624       0.695625
                                                         6.739673       2.243109
                                                        34.417212       2.016536
                          1       6    2pz               0.040000       0.000000
                                                         0.097098       0.005087
                                                         0.283960       0.032186
                                                         0.806764       0.779023
                                                         2.441624       0.695625
                                                         6.739673       2.243109
                                                        34.417212       2.016536

                          1       7    3px               0.040000       0.000000
                                                         0.097098       0.008084
                                                         0.283960       0.294367
                                                         0.806764      -0.188640
                                                         2.441624       0.912249
                                                         6.739673      -2.720242
                                                        34.417212       1.690366
                          1       7    3py               0.040000       0.000000
                                                         0.097098       0.008084
                                                         0.283960       0.294367
                                                         0.806764      -0.188640
                                                         2.441624       0.912249
                                                         6.739673      -2.720242
                                                        34.417212       1.690366
                          1       7    3pz               0.040000       0.000000
                                                         0.097098       0.008084
                                                         0.283960       0.294367
                                                         0.806764      -0.188640
                                                         2.441624       0.912249
                                                         6.739673      -2.720242
                                                        34.417212       1.690366

                          1       8    4px               0.040000       0.000000
                                                         0.097098       0.081068
                                                         0.283960      -0.017243
                                                         0.806764      -0.070055
                                                         2.441624      -0.855991
                                                         6.739673       1.761645
                                                        34.417212     -12.705833
                          1       8    4py               0.040000       0.000000
                                                         0.097098       0.081068
                                                         0.283960      -0.017243
                                                         0.806764      -0.070055
                                                         2.441624      -0.855991
                                                         6.739673       1.761645
                                                        34.417212     -12.705833
                          1       8    4pz               0.040000       0.000000
                                                         0.097098       0.081068
                                                         0.283960      -0.017243
                                                         0.806764      -0.070055
                                                         2.441624      -0.855991
                                                         6.739673       1.761645
                                                        34.417212     -12.705833

                          1       9    5px               0.040000       0.032085
                                                         0.097098      -0.027366
                                                         0.283960      -0.100343
                                                         0.806764      -0.020266
                                                         2.441624       0.000000
                                                         6.739673       0.000000
                                                        34.417212       0.000000
                          1       9    5py               0.040000       0.032085
                                                         0.097098      -0.027366
                                                         0.283960      -0.100343
                                                         0.806764      -0.020266
                                                         2.441624       0.000000
                                                         6.739673       0.000000
                                                        34.417212       0.000000
                          1       9    5pz               0.040000       0.032085
                                                         0.097098      -0.027366
                                                         0.283960      -0.100343
                                                         0.806764      -0.020266
                                                         2.441624       0.000000
                                                         6.739673       0.000000
                                                        34.417212       0.000000

                          1      10    3dx2              0.040000       0.000000
                                                         0.097098       0.001415
                                                         0.283960       0.015501
                                                         0.806764       0.546922
                                                         2.441624       3.763414
                                                         6.739673       4.248634
                                                        34.417212     174.894573
                          1      10    3dxy              0.040000       0.000000
                                                         0.097098       0.002451
                                                         0.283960       0.026849
                                                         0.806764       0.947296
                                                         2.441624       6.518424
                                                         6.739673       7.358850
                                                        34.417212     302.926287
                          1      10    3dxz              0.040000       0.000000
                                                         0.097098       0.002451
                                                         0.283960       0.026849
                                                         0.806764       0.947296
                                                         2.441624       6.518424
                                                         6.739673       7.358850
                                                        34.417212     302.926287
                          1      10    3dy2              0.040000       0.000000
                                                         0.097098       0.001415
                                                         0.283960       0.015501
                                                         0.806764       0.546922
                                                         2.441624       3.763414
                                                         6.739673       4.248634
                                                        34.417212     174.894573
                          1      10    3dyz              0.040000       0.000000
                                                         0.097098       0.002451
                                                         0.283960       0.026849
                                                         0.806764       0.947296
                                                         2.441624       6.518424
                                                         6.739673       7.358850
                                                        34.417212     302.926287
                          1      10    3dz2              0.040000       0.000000
                                                         0.097098       0.001415
                                                         0.283960       0.015501
                                                         0.806764       0.546922
                                                         2.441624       3.763414
                                                         6.739673       4.248634
                                                        34.417212     174.894573

                          1      11    4dx2              0.040000       0.000000
                                                         0.097098       0.001225
                                                         0.283960       0.139703
                                                         0.806764       0.323683
                                                         2.441624      -2.510108
                                                         6.739673      -4.401044
                                                        34.417212    -164.169372
                          1      11    4dxy              0.040000       0.000000
                                                         0.097098       0.002122
                                                         0.283960       0.241972
                                                         0.806764       0.560636
                                                         2.441624      -4.347634
                                                         6.739673      -7.622831
                                                        34.417212    -284.349694
                          1      11    4dxz              0.040000       0.000000
                                                         0.097098       0.002122
                                                         0.283960       0.241972
                                                         0.806764       0.560636
                                                         2.441624      -4.347634
                                                         6.739673      -7.622831
                                                        34.417212    -284.349694
                          1      11    4dy2              0.040000       0.000000
                                                         0.097098       0.001225
                                                         0.283960       0.139703
                                                         0.806764       0.323683
                                                         2.441624      -2.510108
                                                         6.739673      -4.401044
                                                        34.417212    -164.169372
                          1      11    4dyz              0.040000       0.000000
                                                         0.097098       0.002122
                                                         0.283960       0.241972
                                                         0.806764       0.560636
                                                         2.441624      -4.347634
                                                         6.739673      -7.622831
                                                        34.417212    -284.349694
                          1      11    4dz2              0.040000       0.000000
                                                         0.097098       0.001225
                                                         0.283960       0.139703
                                                         0.806764       0.323683
                                                         2.441624      -2.510108
                                                         6.739673      -4.401044
                                                        34.417212    -164.169372

                          1      12    5dx2              0.040000       0.006049
                                                         0.097098      -0.003128
                                                         0.283960       0.033814
                                                         0.806764       0.003338
                                                         2.441624       0.000000
                                                         6.739673       0.000000
                                                        34.417212       0.000000
                          1      12    5dxy              0.040000       0.010477
                                                         0.097098      -0.005418
                                                         0.283960       0.058567
                                                         0.806764       0.005781
                                                         2.441624       0.000000
                                                         6.739673       0.000000
                                                        34.417212       0.000000
                          1      12    5dxz              0.040000       0.010477
                                                         0.097098      -0.005418
                                                         0.283960       0.058567
                                                         0.806764       0.005781
                                                         2.441624       0.000000
                                                         6.739673       0.000000
                                                        34.417212       0.000000
                          1      12    5dy2              0.040000       0.006049
                                                         0.097098      -0.003128
                                                         0.283960       0.033814
                                                         0.806764       0.003338
                                                         2.441624       0.000000
                                                         6.739673       0.000000
                                                        34.417212       0.000000
                          1      12    5dyz              0.040000       0.010477
                                                         0.097098      -0.005418
                                                         0.283960       0.058567
                                                         0.806764       0.005781
                                                         2.441624       0.000000
                                                         6.739673       0.000000
                                                        34.417212       0.000000
                          1      12    5dz2              0.040000       0.006049
                                                         0.097098      -0.003128
                                                         0.283960       0.033814
                                                         0.806764       0.003338
                                                         2.441624       0.000000
                                                         6.739673       0.000000
                                                        34.417212       0.000000

                          1      13    4fx3              0.040000       0.000000
                                                         0.097098      -0.000799
                                                         0.283960       0.042127
                                                         0.806764       0.576468
                                                         2.441624       1.033755
                                                         6.739673      -2.026957
                                                        34.417212      49.427593
                          1      13    4fx2y             0.040000       0.000000
                                                         0.097098      -0.001786
                                                         0.283960       0.094199
                                                         0.806764       1.289022
                                                         2.441624       2.311546
                                                         6.739673      -4.532415
                                                        34.417212     110.523457
                          1      13    4fx2z             0.040000       0.000000
                                                         0.097098      -0.001786
                                                         0.283960       0.094199
                                                         0.806764       1.289022
                                                         2.441624       2.311546
                                                         6.739673      -4.532415
                                                        34.417212     110.523457
                          1      13    4fxy2             0.040000       0.000000
                                                         0.097098      -0.001786
                                                         0.283960       0.094199
                                                         0.806764       1.289022
                                                         2.441624       2.311546
                                                         6.739673      -4.532415
                                                        34.417212     110.523457
                          1      13    4fxyz             0.040000       0.000000
                                                         0.097098      -0.003093
                                                         0.283960       0.163158
                                                         0.806764       2.232651
                                                         2.441624       4.003716
                                                         6.739673      -7.850372
                                                        34.417212     191.432243
                          1      13    4fxz2             0.040000       0.000000
                                                         0.097098      -0.001786
                                                         0.283960       0.094199
                                                         0.806764       1.289022
                                                         2.441624       2.311546
                                                         6.739673      -4.532415
                                                        34.417212     110.523457
                          1      13    4fy3              0.040000       0.000000
                                                         0.097098      -0.000799
                                                         0.283960       0.042127
                                                         0.806764       0.576468
                                                         2.441624       1.033755
                                                         6.739673      -2.026957
                                                        34.417212      49.427593
                          1      13    4fy2z             0.040000       0.000000
                                                         0.097098      -0.001786
                                                         0.283960       0.094199
                                                         0.806764       1.289022
                                                         2.441624       2.311546
                                                         6.739673      -4.532415
                                                        34.417212     110.523457
                          1      13    4fyz2             0.040000       0.000000
                                                         0.097098      -0.001786
                                                         0.283960       0.094199
                                                         0.806764       1.289022
                                                         2.441624       2.311546
                                                         6.739673      -4.532415
                                                        34.417212     110.523457
                          1      13    4fz3              0.040000       0.000000
                                                         0.097098      -0.000799
                                                         0.283960       0.042127
                                                         0.806764       0.576468
                                                         2.441624       1.033755
                                                         6.739673      -2.026957
                                                        34.417212      49.427593

                          1      14    5fx3              0.040000       0.000092
                                                         0.097098       0.001511
                                                         0.283960      -0.094589
                                                         0.806764       0.000869
                                                         2.441624       0.000000
                                                         6.739673       0.000000
                                                        34.417212       0.000000
                          1      14    5fx2y             0.040000       0.000206
                                                         0.097098       0.003380
                                                         0.283960      -0.211507
                                                         0.806764       0.001943
                                                         2.441624       0.000000
                                                         6.739673       0.000000
                                                        34.417212       0.000000
                          1      14    5fx2z             0.040000       0.000206
                                                         0.097098       0.003380
                                                         0.283960      -0.211507
                                                         0.806764       0.001943
                                                         2.441624       0.000000
                                                         6.739673       0.000000
                                                        34.417212       0.000000
                          1      14    5fxy2             0.040000       0.000206
                                                         0.097098       0.003380
                                                         0.283960      -0.211507
                                                         0.806764       0.001943
                                                         2.441624       0.000000
                                                         6.739673       0.000000
                                                        34.417212       0.000000
                          1      14    5fxyz             0.040000       0.000357
                                                         0.097098       0.005854
                                                         0.283960      -0.366341
                                                         0.806764       0.003365
                                                         2.441624       0.000000
                                                         6.739673       0.000000
                                                        34.417212       0.000000
                          1      14    5fxz2             0.040000       0.000206
                                                         0.097098       0.003380
                                                         0.283960      -0.211507
                                                         0.806764       0.001943
                                                         2.441624       0.000000
                                                         6.739673       0.000000
                                                        34.417212       0.000000
                          1      14    5fy3              0.040000       0.000092
                                                         0.097098       0.001511
                                                         0.283960      -0.094589
                                                         0.806764       0.000869
                                                         2.441624       0.000000
                                                         6.739673       0.000000
                                                        34.417212       0.000000
                          1      14    5fy2z             0.040000       0.000206
                                                         0.097098       0.003380
                                                         0.283960      -0.211507
                                                         0.806764       0.001943
                                                         2.441624       0.000000
                                                         6.739673       0.000000
                                                        34.417212       0.000000
                          1      14    5fyz2             0.040000       0.000206
                                                         0.097098       0.003380
                                                         0.283960      -0.211507
                                                         0.806764       0.001943
                                                         2.441624       0.000000
                                                         6.739673       0.000000
                                                        34.417212       0.000000
                          1      14    5fz3              0.040000       0.000092
                                                         0.097098       0.001511
                                                         0.283960      -0.094589
                                                         0.806764       0.000869
                                                         2.441624       0.000000
                                                         6.739673       0.000000
                                                        34.417212       0.000000

                          1      15    5gx4              0.040000       0.000014
                                                         0.097098       0.001608
                                                         0.283960       0.004604
                                                         0.806764      -0.003474
                                                         2.441624       0.000000
                                                         6.739673       0.000000
                                                        34.417212       0.000000
                          1      15    5gx3y             0.040000       0.000036
                                                         0.097098       0.004255
                                                         0.283960       0.012180
                                                         0.806764      -0.009191
                                                         2.441624       0.000000
                                                         6.739673       0.000000
                                                        34.417212       0.000000
                          1      15    5gx3z             0.040000       0.000036
                                                         0.097098       0.004255
                                                         0.283960       0.012180
                                                         0.806764      -0.009191
                                                         2.441624       0.000000
                                                         6.739673       0.000000
                                                        34.417212       0.000000
                          1      15    5gx2y2            0.040000       0.000046
                                                         0.097098       0.005493
                                                         0.283960       0.015725
                                                         0.806764      -0.011865
                                                         2.441624       0.000000
                                                         6.739673       0.000000
                                                        34.417212       0.000000
                          1      15    5gx2yz            0.040000       0.000080
                                                         0.097098       0.009514
                                                         0.283960       0.027236
                                                         0.806764      -0.020551
                                                         2.441624       0.000000
                                                         6.739673       0.000000
                                                        34.417212       0.000000
                          1      15    5gx2z2            0.040000       0.000046
                                                         0.097098       0.005493
                                                         0.283960       0.015725
                                                         0.806764      -0.011865
                                                         2.441624       0.000000
                                                         6.739673       0.000000
                                                        34.417212       0.000000
                          1      15    5gxy3             0.040000       0.000036
                                                         0.097098       0.004255
                                                         0.283960       0.012180
                                                         0.806764      -0.009191
                                                         2.441624       0.000000
                                                         6.739673       0.000000
                                                        34.417212       0.000000
                          1      15    5gxy2z            0.040000       0.000080
                                                         0.097098       0.009514
                                                         0.283960       0.027236
                                                         0.806764      -0.020551
                                                         2.441624       0.000000
                                                         6.739673       0.000000
                                                        34.417212       0.000000
                          1      15    5gxyz2            0.040000       0.000080
                                                         0.097098       0.009514
                                                         0.283960       0.027236
                                                         0.806764      -0.020551
                                                         2.441624       0.000000
                                                         6.739673       0.000000
                                                        34.417212       0.000000
                          1      15    5gxz3             0.040000       0.000036
                                                         0.097098       0.004255
                                                         0.283960       0.012180
                                                         0.806764      -0.009191
                                                         2.441624       0.000000
                                                         6.739673       0.000000
                                                        34.417212       0.000000
                          1      15    5gy4              0.040000       0.000014
                                                         0.097098       0.001608
                                                         0.283960       0.004604
                                                         0.806764      -0.003474
                                                         2.441624       0.000000
                                                         6.739673       0.000000
                                                        34.417212       0.000000
                          1      15    5gy3z             0.040000       0.000036
                                                         0.097098       0.004255
                                                         0.283960       0.012180
                                                         0.806764      -0.009191
                                                         2.441624       0.000000
                                                         6.739673       0.000000
                                                        34.417212       0.000000
                          1      15    5gy2z2            0.040000       0.000046
                                                         0.097098       0.005493
                                                         0.283960       0.015725
                                                         0.806764      -0.011865
                                                         2.441624       0.000000
                                                         6.739673       0.000000
                                                        34.417212       0.000000
                          1      15    5gyz3             0.040000       0.000036
                                                         0.097098       0.004255
                                                         0.283960       0.012180
                                                         0.806764      -0.009191
                                                         2.441624       0.000000
                                                         6.739673       0.000000
                                                        34.417212       0.000000
                          1      15    5gz4              0.040000       0.000014
                                                         0.097098       0.001608
                                                         0.283960       0.004604
                                                         0.806764      -0.003474
                                                         2.441624       0.000000
                                                         6.739673       0.000000
                                                        34.417212       0.000000

                          2       1    1s            13575.369584       0.323227
                                                      2035.237517       2.062509
                                                       463.111112       2.210797
                                                       131.318553       4.954487
                                                        42.899593       1.730189
                                                        15.855102       4.257999

     RI Auxiliary Basis Set             RI_aug-TZVP-MOLOPT-ae_N_RI_094_s_p_d_f_g

       Number of orbital shell sets:                                          24
       Number of orbital shells:                                              24
       Number of primitive Cartesian functions:                               24
       Number of Cartesian basis functions:                                  121
       Number of spherical basis functions:                                   94
       Norm type:                                                              2

       Normalised Cartesian orbitals:

                        Set   Shell   Orbital            Exponent    Coefficient

                          1       1    1s                0.182375       0.198900

                          2       1   14dx2              0.216126       0.112758
                          2       1   14dxy              0.216126       0.195303
                          2       1   14dxz              0.216126       0.195303
                          2       1   14dy2              0.216126       0.112758
                          2       1   14dyz              0.216126       0.195303
                          2       1   14dz2              0.216126       0.112758

                          3       1    2s                0.278625       0.273322

                          4       1    8px               0.350543       0.384474
                          4       1    8py               0.350543       0.384474
                          4       1    8pz               0.350543       0.384474

                          5       1   15dx2              0.387364       0.313053
                          5       1   15dxy              0.387364       0.542224
                          5       1   15dxz              0.387364       0.542224
                          5       1   15dy2              0.387364       0.313053
                          5       1   15dyz              0.387364       0.542224
                          5       1   15dz2              0.387364       0.313053

                          6       1    9px               0.492520       0.588125
                          6       1    9py               0.492520       0.588125
                          6       1    9pz               0.492520       0.588125

                          7       1   20fx3              0.530875       0.354149
                          7       1   20fx2y             0.530875       0.791902
                          7       1   20fx2z             0.530875       0.791902
                          7       1   20fxy2             0.530875       0.791902
                          7       1   20fxyz             0.530875       1.371615
                          7       1   20fxz2             0.530875       0.791902
                          7       1   20fy3              0.530875       0.354149
                          7       1   20fy2z             0.530875       0.791902
                          7       1   20fyz2             0.530875       0.791902
                          7       1   20fz3              0.530875       0.354149

                          8       1   23gx4              0.547365       0.212176
                          8       1   23gx3y             0.547365       0.561366
                          8       1   23gx3z             0.547365       0.561366
                          8       1   23gx2y2            0.547365       0.724720
                          8       1   23gx2yz            0.547365       1.255253
                          8       1   23gx2z2            0.547365       0.724720
                          8       1   23gxy3             0.547365       0.561366
                          8       1   23gxy2z            0.547365       1.255253
                          8       1   23gxyz2            0.547365       1.255253
                          8       1   23gxz3             0.547365       0.561366
                          8       1   23gy4              0.547365       0.212176
                          8       1   23gy3z             0.547365       0.561366
                          8       1   23gy2z2            0.547365       0.724720
                          8       1   23gyz3             0.547365       0.561366
                          8       1   23gz4              0.547365       0.212176

                          9       1   16dx2              0.715114       0.915306
                          9       1   16dxy              0.715114       1.585357
                          9       1   16dxz              0.715114       1.585357
                          9       1   16dy2              0.715114       0.915306
                          9       1   16dyz              0.715114       1.585357
                          9       1   16dz2              0.715114       0.915306

                         10       1    3s                0.753344       0.576309

                         11       1   10px               1.063482       1.539405
                         11       1   10py               1.063482       1.539405
                         11       1   10pz               1.063482       1.539405

                         12       1   17dx2              1.313463       2.652409
                         12       1   17dxy              1.313463       4.594108
                         12       1   17dxz              1.313463       4.594108
                         12       1   17dy2              1.313463       2.652409
                         12       1   17dyz              1.313463       4.594108
                         12       1   17dz2              1.313463       2.652409

                         13       1   21fx3              1.320842       2.753398
                         13       1   21fx2y             1.320842       6.156786
                         13       1   21fx2z             1.320842       6.156786
                         13       1   21fxy2             1.320842       6.156786
                         13       1   21fxyz             1.320842      10.663866
                         13       1   21fxz2             1.320842       6.156786
                         13       1   21fy3              1.320842       2.753398
                         13       1   21fy2z             1.320842       6.156786
                         13       1   21fyz2             1.320842       6.156786
                         13       1   21fz3              1.320842       2.753398

                         14       1   24gx4              1.548328       3.703041
                         14       1   24gx3y             1.548328       9.797325
                         14       1   24gx3z             1.548328       9.797325
                         14       1   24gx2y2            1.548328      12.648292
                         14       1   24gx2yz            1.548328      21.907485
                         14       1   24gx2z2            1.548328      12.648292
                         14       1   24gxy3             1.548328       9.797325
                         14       1   24gxy2z            1.548328      21.907485
                         14       1   24gxyz2            1.548328      21.907485
                         14       1   24gxz3             1.548328       9.797325
                         14       1   24gy4              1.548328       3.703041
                         14       1   24gy3z             1.548328       9.797325
                         14       1   24gy2z2            1.548328      12.648292
                         14       1   24gyz3             1.548328       9.797325
                         14       1   24gz4              1.548328       3.703041

                         15       1    4s                2.247219       1.308110

                         16       1   18dx2              2.417521       7.714496
                         16       1   18dxy              2.417521      13.361899
                         16       1   18dxz              2.417521      13.361899
                         16       1   18dy2              2.417521       7.714496
                         16       1   18dyz              2.417521      13.361899
                         16       1   18dz2              2.417521       7.714496

                         17       1   11px               2.682426       4.893278
                         17       1   11py               2.682426       4.893278
                         17       1   11pz               2.682426       4.893278

                         18       1   22fx3              3.882270      31.145644
                         18       1   22fx2y             3.882270      69.643778
                         18       1   22fx2z             3.882270      69.643778
                         18       1   22fxy2             3.882270      69.643778
                         18       1   22fxyz             3.882270     120.626562
                         18       1   22fxz2             3.882270      69.643778
                         18       1   22fy3              3.882270      31.145644
                         18       1   22fy2z             3.882270      69.643778
                         18       1   22fyz2             3.882270      69.643778
                         18       1   22fz3              3.882270      31.145644

                         19       1   19dx2              4.573046      23.537977
                         19       1   19dxy              4.573046      40.768972
                         19       1   19dxz              4.573046      40.768972
                         19       1   19dy2              4.573046      23.537977
                         19       1   19dyz              4.573046      40.768972
                         19       1   19dz2              4.573046      23.537977

                         20       1   12px               6.990933      16.203506
                         20       1   12py               6.990933      16.203506
                         20       1   12pz               6.990933      16.203506

                         21       1    5s                7.163766       3.120801

                         22       1   13px              16.966694      49.083625
                         22       1   13py              16.966694      49.083625
                         22       1   13pz              16.966694      49.083625

                         23       1    6s               24.806664       7.922028

                         24       1    7s               79.332059      18.945088

       Atomic covalent radius [Angstrom]:                                  0.770

       Atomic van der Waals radius [Angstrom]:                             1.700

     The atoms of this atomic kind are PAW atoms (GAPW):
       Hard Gaussian function radius:                                      1.512
       Rho0 radius:                                                        1.512
       Maximum GTO radius used for PAW projector construction:            24.566

     GAPW Soft Basis Set                                 aug-TZVP-MOLOPT-ae_soft

       Number of orbital shell sets:                                           2
       Number of orbital shells:                                              16
       Number of primitive Cartesian functions:                                5
       Number of Cartesian basis functions:                                   71
       Number of spherical basis functions:                                   56
       Norm type:                                                              2

       Normalised Cartesian orbitals:

                        Set   Shell   Orbital            Exponent    Coefficient

                          1       1    1s                0.040000       0.000000
                                                         0.097098       0.019281
                                                         0.283960       0.027513
                                                         0.806764       0.003692
                                                         2.441624       0.446183

                          1       2    2s                0.040000       0.000000
                                                         0.097098       0.029117
                                                         0.283960       0.094997
                                                         0.806764       0.362633
                                                         2.441624      -0.104551

                          1       3    3s                0.040000       0.000000
                                                         0.097098       0.047046
                                                         0.283960       0.169545
                                                         0.806764      -0.252838
                                                         2.441624      -0.199197

                          1       4    4s                0.040000       0.000000
                                                         0.097098       0.188374
                                                         0.283960      -0.341415
                                                         0.806764       0.091223
                                                         2.441624      -0.053941

                          1       5    5s                0.040000       0.099533
                                                         0.097098      -0.167672
                                                         0.283960      -0.126383
                                                         0.806764       0.030074
                                                         2.441624       0.000000

                          1       6    2px               0.040000       0.000000
                                                         0.097098       0.005087
                                                         0.283960       0.032186
                                                         0.806764       0.779023
                                                         2.441624       0.695625
                          1       6    2py               0.040000       0.000000
                                                         0.097098       0.005087
                                                         0.283960       0.032186
                                                         0.806764       0.779023
                                                         2.441624       0.695625
                          1       6    2pz               0.040000       0.000000
                                                         0.097098       0.005087
                                                         0.283960       0.032186
                                                         0.806764       0.779023
                                                         2.441624       0.695625

                          1       7    3px               0.040000       0.000000
                                                         0.097098       0.008084
                                                         0.283960       0.294367
                                                         0.806764      -0.188640
                                                         2.441624       0.912249
                          1       7    3py               0.040000       0.000000
                                                         0.097098       0.008084
                                                         0.283960       0.294367
                                                         0.806764      -0.188640
                                                         2.441624       0.912249
                          1       7    3pz               0.040000       0.000000
                                                         0.097098       0.008084
                                                         0.283960       0.294367
                                                         0.806764      -0.188640
                                                         2.441624       0.912249

                          1       8    4px               0.040000       0.000000
                                                         0.097098       0.081068
                                                         0.283960      -0.017243
                                                         0.806764      -0.070055
                                                         2.441624      -0.855991
                          1       8    4py               0.040000       0.000000
                                                         0.097098       0.081068
                                                         0.283960      -0.017243
                                                         0.806764      -0.070055
                                                         2.441624      -0.855991
                          1       8    4pz               0.040000       0.000000
                                                         0.097098       0.081068
                                                         0.283960      -0.017243
                                                         0.806764      -0.070055
                                                         2.441624      -0.855991

                          1       9    5px               0.040000       0.032085
                                                         0.097098      -0.027366
                                                         0.283960      -0.100343
                                                         0.806764      -0.020266
                                                         2.441624       0.000000
                          1       9    5py               0.040000       0.032085
                                                         0.097098      -0.027366
                                                         0.283960      -0.100343
                                                         0.806764      -0.020266
                                                         2.441624       0.000000
                          1       9    5pz               0.040000       0.032085
                                                         0.097098      -0.027366
                                                         0.283960      -0.100343
                                                         0.806764      -0.020266
                                                         2.441624       0.000000

                          1      10    3dx2              0.040000       0.000000
                                                         0.097098       0.001415
                                                         0.283960       0.015501
                                                         0.806764       0.546922
                                                         2.441624       3.763414
                          1      10    3dxy              0.040000       0.000000
                                                         0.097098       0.002451
                                                         0.283960       0.026849
                                                         0.806764       0.947296
                                                         2.441624       6.518424
                          1      10    3dxz              0.040000       0.000000
                                                         0.097098       0.002451
                                                         0.283960       0.026849
                                                         0.806764       0.947296
                                                         2.441624       6.518424
                          1      10    3dy2              0.040000       0.000000
                                                         0.097098       0.001415
                                                         0.283960       0.015501
                                                         0.806764       0.546922
                                                         2.441624       3.763414
                          1      10    3dyz              0.040000       0.000000
                                                         0.097098       0.002451
                                                         0.283960       0.026849
                                                         0.806764       0.947296
                                                         2.441624       6.518424
                          1      10    3dz2              0.040000       0.000000
                                                         0.097098       0.001415
                                                         0.283960       0.015501
                                                         0.806764       0.546922
                                                         2.441624       3.763414

                          1      11    4dx2              0.040000       0.000000
                                                         0.097098       0.001225
                                                         0.283960       0.139703
                                                         0.806764       0.323683
                                                         2.441624      -2.510108
                          1      11    4dxy              0.040000       0.000000
                                                         0.097098       0.002122
                                                         0.283960       0.241972
                                                         0.806764       0.560636
                                                         2.441624      -4.347634
                          1      11    4dxz              0.040000       0.000000
                                                         0.097098       0.002122
                                                         0.283960       0.241972
                                                         0.806764       0.560636
                                                         2.441624      -4.347634
                          1      11    4dy2              0.040000       0.000000
                                                         0.097098       0.001225
                                                         0.283960       0.139703
                                                         0.806764       0.323683
                                                         2.441624      -2.510108
                          1      11    4dyz              0.040000       0.000000
                                                         0.097098       0.002122
                                                         0.283960       0.241972
                                                         0.806764       0.560636
                                                         2.441624      -4.347634
                          1      11    4dz2              0.040000       0.000000
                                                         0.097098       0.001225
                                                         0.283960       0.139703
                                                         0.806764       0.323683
[...]
 -------------------------------------------------------------------------------
 
 CP2K version 2025.1 (Development Version), the CP2K developers group (2025).
 CP2K is freely available from https://www.cp2k.org/ .
 
 T. D. Kuehne, M. Iannuzzi, M. Del Ben, V. V. Rybkin, P. Seewald, F. Stein, T. 
 Laino, R. Z. Khaliullin, O. Schuett, F. Schiffmann, D. Golze, J. Wilhelm, S. 
 Chulkov, M. H. Bani-Hashemian, V. Weber, U. Borstnik, M. Taillefumier, A. S. 
 Jakobovits, A. Lazzaro, H. Pabst, T. Mueller, R. Schade, M. Guidon, S. 
 Andermatt, N. Holmberg, G. K. Schenter, A. Hehn, A. Bussy, F. Belleflamme, G. 
 Tabacchi, A. Gloess, M. Lass, I. Bethune, C. J. Mundy, C. Plessl, M. Watkins, 
 J. VandeVondele, M. Krack, J. Hutter.
 J. Chem. Phys. 152, 194103 (2020).
 CP2K: An electronic structure and molecular dynamics software package - 
 Quickstep: Efficient and accurate electronic structure calculations.
 https://doi.org/10.1063/5.0007045

 O. Schuett, P. Messmer, J. Hutter, J. VandeVondele.
 Electronic Structure Calculations on Graphics Processing Units, 173-190 (2016).
 GPU-Accelerated Sparse Matrix-Matrix Multiplication for Linear Scaling Density 
 Functional Theory.
 https://doi.org/10.1002/9781118670712.ch8

 A. Heinecke, G. Henry, M. Hutchinson, H. Pabst.
 Proceedings of Intl. Supercomputing Conference, 981-991 (2016).
 LIBXSMM: Accelerating Small Matrix Multiplications by Runtime Code Generation.
 https://doi.org/10.1109/SC.2016.83

 J. Hutter, M. Iannuzzi, F. Schiffmann, J. VandeVondele.
 WIREs Comput Mol Sci. 4, 15-25 (2014).
 CP2K: atomistic simulations of condensed matter systems.
 https://doi.org/10.1002/wcms.1159

 U. Borstnik, J. VandeVondele, V. Weber, J. Hutter.
 Parallel Comput. 40, 47-58 (2014).
 Sparse matrix multiplication: The distributed block-compressed sparse row 
 library.
 https://doi.org/10.1016/j.parco.2014.03.012

 A. Marek, V. Blum, R. Johanni, V. Havu, B. Lang, T. Auckenthaler, A. Heinecke, 
 H. Bungartz, H. Lederer.
 J. Phys. Condens. Matter 26, 213201 (2014).
 The ELPA library: scalable parallel eigenvalue solutions for electronic 
 structure theory and computational science.
 https://doi.org/10.1088/0953-8984/26/21/213201

 M. Guidon, J. Hutter, J. VandeVondele.
 J. Chem. Theory Comput. 5, 3010-3021 (2009).
 Robust Periodic Hartree-Fock Exchange for Large-Scale Simulations Using 
 Gaussian Basis Sets.
 https://doi.org/10.1021/ct900494g

 M. Guidon, F. Schiffmann, J. Hutter, J. VandeVondele.
 J. Chem. Phys. 128, 214104 (2008).
 Ab initio molecular dynamics using hybrid density functionals.
 https://doi.org/10.1063/1.2931945

 L. Genovese, T. Deutsch, S. Goedecker.
 J. Chem. Phys. 127, 054704 (2007).
 Efficient and accurate three-dimensional Poisson solver for surface problems.
 https://doi.org/10.1063/1.2754685

 J. VandeVondele, J. Hutter.
 J. Chem. Phys. 127, 114105 (2007).
 Gaussian basis sets for accurate calculations on molecular systems in gas and 
 condensed phases.
 https://doi.org/10.1063/1.2770708

 L. Genovese, T. Deutsch, A. Neelov, S. Goedecker, G. Beylkin.
 J. Chem. Phys. 125, 074105 (2006).
 Efficient solution of Poisson's equation with free boundary conditions.
 https://doi.org/10.1063/1.2335442

 M. Iannuzzi, T. Chassaing, T. Wallman, J. Hutter.
 CHIMIA 59, 499-503 (2005).
 Ground and excited state density functional calculations with the Gaussian and 
 augmented-plane-wave method.
 https://doi.org/10.2533/000942905777676164

 M. Frigo, S. G. Johnson.
 Proc. IEEE 93, 216-231 (2005).
 The design and implementation of FFTW3.
 https://doi.org/10.1109/JPROC.2004.840301

 R. L. Martin.
 J. Chem. Phys. 118, 4775-4777 (2003).
 Natural transition orbitals.
 https://doi.org/10.1063/1.1558471

 M. Krack, M. Parrinello.
 Phys. Chem. Chem. Phys. 2, 2105-2112 (2000).
 All-electron ab-initio molecular dynamics.
 https://doi.org/10.1039/b001167n

 G. Lippert, J. Hutter, M. Parrinello.
 Theor. Chem. Acc. 103, 124-140 (1999).
 The Gaussian and augmented-plane-wave density functional method for ab initio 
 molecular dynamics simulations.
 https://doi.org/10.1007/s002140050523

 J. P. Perdew, K. Burke, M. Ernzerhof.
 Phys. Rev. Lett. 77, 3865-3868 (1996).
 Generalized gradient approximation made simple.
 https://doi.org/10.1103/PhysRevLett.77.3865


 -------------------------------------------------------------------------------
 -                                                                             -
 -                                T I M I N G                                  -
 -                                                                             -
 -------------------------------------------------------------------------------
 SUBROUTINE                       CALLS  ASD         SELF TIME        TOTAL TIME
                                MAXIMUM       AVERAGE  MAXIMUM  AVERAGE  MAXIMUM
 CP2K                                 1  1.0    0.014    0.022  876.288  876.299
 qs_energies                          1  2.0    0.000    0.000  875.970  875.982
 scf_env_do_scf                       1  3.0    0.000    0.000  544.861  544.868
 scf_env_do_scf_inner_loop           59  4.0    0.001    0.003  544.861  544.868
 qs_ks_update_qs_env                 59  5.0    0.000    0.000  513.566  513.631
 rebuild_ks_matrix                   59  6.0    0.000    0.000  513.562  513.627
 qs_ks_build_kohn_sham_matrix        59  7.0    0.008    0.010  513.562  513.627
 integrate_four_center              339  9.8   36.915   50.098  473.221  473.280
 hfx_ks_matrix                       59  8.0    0.001    0.001  419.568  419.591
 mp_sync                           1810 11.5  375.957  417.087  375.957  417.087
 integrate_four_center_main         339 10.8    2.010  106.262   29.215  415.602
 integrate_four_center_bin        37228 11.8   27.204  413.696   27.204  413.696
 qs_energies_properties               1  3.0    0.000    0.000  330.265  330.269
 tddfpt                               1  4.0    0.000    0.000  330.265  330.269
 tddfpt_energies                      1  5.0    0.000    0.000  330.237  330.242
 tddfpt_davidson_solver               1  6.0    0.001    0.001  328.532  328.536
 tddfpt_compute_Aop_evects            7  7.0    0.000    0.000  327.734  327.738
 fhxc_kernel                          7  8.0    0.006    0.007  272.884  272.888
 fft_wrap_pw1pw2                   4053 11.1    0.088    0.113  141.806  147.664
 fft_wrap_pw1pw2_250               2853 12.1    4.000    4.986  136.293  143.688
 fft3d_ps                          4053 13.1   27.237   32.941  125.312  132.985
 tddfpt_apply_coulomb               140  9.0    0.003    0.003  115.249  117.573
 pw_poisson_solve                   199  9.4    1.265    1.832  115.174  117.494
 mp_alltoall_z22v                  4053 15.1   91.843   98.322   91.843   98.322
 ps_wavelet_solve                   199 10.4   17.305   21.862   73.973   75.503
 qs_rho_update_rho_low              201  7.8    0.002    0.003   72.589   72.621
 calculate_rho_elec                 201  8.8    0.393    0.496   69.231   69.232
 x_to_yz                           1854 13.8    2.977    4.778   54.505   60.887
 xc_pw_derive                      1197 11.0    0.011    0.013   55.717   57.393
 tddfpt_apply_hfx                     7  8.0    0.002    0.002   54.654   54.655
 tddft_hfx_matrix                   280  9.0    0.003    0.004   53.658   53.700
 transfer_pw2rs                     996 10.9    0.020    0.026   51.884   52.542
 tddfpt_apply_xc_analytic           140  9.0    0.311    0.397   49.069   49.857
 mp_waitany                       46438 12.8   36.162   47.463   36.162   47.463
 yz_to_x                           1799 14.4    2.710    3.005   42.992   45.642
 prepare_gapw_den                   200  8.7    0.003    0.004   42.420   43.386
 integrate_v_rspace                 199  9.0    0.006    0.007   42.424   43.352
 potential_pw2rs                    199 10.0    0.030    0.036   42.188   42.471
 density_rs2pw                      201  9.8    0.009    0.011   40.493   42.437
 mp_alltoall_d54                    199 11.4   27.833   42.134   27.833   42.134
 transfer_pw2rs_250                 399 11.7    4.905    5.665   36.158   38.262
 xc_pw_divergence                   199 10.7    0.005    0.006   36.950   37.645
 mp_alltoall_d45                    200 11.4   28.929   30.595   28.929   30.595
 xc_calc_2nd_deriv_analytical       700 10.1    1.672    2.149   28.817   29.229
 grid_collocate_task_list           201  9.8   26.827   28.725   26.827   28.725
 calc_screening_functions             1 10.0   27.780   28.296   28.135   28.663
 integrate_vhg0_rspace              199  9.4    0.532    0.647   26.523   26.866
 mp_isend_dm3                      8006 12.8    9.071   25.138    9.071   25.138
 transfer_rs2pw                    1005 10.8    0.032    0.041   24.243   24.873
 calculate_rho_atom                 600  9.7    2.652   23.479    2.652   23.480
 mp_sum_d                          5197  7.4   11.911   21.722   11.911   21.722
 mp_sum_dv                        16679  8.9   20.763   21.638   20.763   21.638
 qs_vxc_create                       59  8.0    0.001    0.001   21.551   21.557
 xc_vxc_pw_create                    59  9.0    0.200    0.274   21.550   21.556
 put_rho0_on_grid                   200  9.7    0.405    0.519   18.370   19.338
 gaVxcgb_GC                         398  9.7    0.378   16.387    0.378   16.387
 mp_irecv_dm3                      8006 12.8    1.054   15.747    1.054   15.747
 transfer_rs2pw_250                 402 11.7    5.338    5.869   14.529   15.561
 sum_up_and_integrate                59  8.0    0.001    0.001   14.989   15.217
 mp_waitall_1                    279310 13.3    9.223   14.147    9.223   14.147
 transfer_pw2rs_90                  199 12.0    0.914    1.166    8.668   13.412
 calculate_xc_2nd_deriv_atom        140  9.0    0.053    0.854    0.350   12.687
 xc_rho_set_and_dset_create          60 10.0    0.235    0.352   10.175   11.151
 mp_alltoall_d11v                 12564 11.6    6.627    9.947    6.627    9.947
 fft_wrap_pw1pw2_90                 400 11.9    0.113    0.225    4.501    8.674
 gspace_mixing                       58  5.0    0.113    0.143    7.663    7.674
 transfer_pw2rs_30                  199 12.0    2.183    2.264    6.263    7.493
 cp2k_distribution_to_z_slices      199 10.4    1.103    1.408    5.769    6.613
 Vh_1c_gg_integrals                 199  9.4    0.053    1.498    2.734    6.386
 transfer_rs2pw_90                  201 11.8    1.063    1.509    4.752    6.133
 mp_sum_dm                         3089  9.9    5.089    6.031    5.089    6.031
 pw_derive                         1794 11.8    5.320    5.929    5.320    5.929
 pw_gather_p                       2000 13.3    4.091    5.773    4.091    5.773
 calculate_vxc_atom                  59  8.0    0.023    0.180    5.066    5.066
 rs_grid_zero                       998 11.9    4.760    5.051    4.760    5.051
 pw_scatter_p                      2053 12.8    4.151    4.695    4.151    4.695
 broyden_mixing                      58  6.0    4.162    4.209    4.353    4.377
 pw_integral_ab_c1d_c1d_gs          199 10.4    0.763    0.881    1.723    4.322
 pw_copy                           2710 11.0    3.819    4.305    3.819    4.305
 transfer_rs2pw_30                  201 11.8    1.294    1.477    4.075    4.184
 mp_sendrecv_dv                   51054 12.8    3.323    3.535    3.323    3.535
 calculate_rho_atom_coeff           201  8.8    0.153    0.435    3.356    3.388
 pw_poisson_set                     200 10.4    0.005    0.005    3.281    3.380
 pw_copy_to_array                  2000 13.3    2.372    3.061    2.372    3.061
 integrate_four_center_getP         339 10.8    0.048    0.058    2.045    2.465
 pw_axpy                           2138 10.8    1.820    2.247    1.820    2.247
 pw_copy_from_array                2053 12.8    1.663    2.071    1.663    2.071
 pw_zero                           2180 10.6    1.662    2.016    1.662    2.016
 cp_dbcsr_sm_fm_multiply            886  8.6    0.011    0.012    1.759    1.918
 mp_max_i                           666  4.6    0.937    1.743    0.937    1.743
 xc_functional_eval                 856 10.9    0.001    0.004    0.947    1.576
 pbe_lda_eval                       856 11.9    0.946    1.574    0.946    1.574
 update_ks_atom                     199  8.7    0.086    0.361    1.191    1.410
 mp_bcast_dm                       1990  9.7    1.105    1.354    1.105    1.354
 mp_sum_l                          4785 10.4    0.763    1.284    0.763    1.284
 dbcsr_complete_redistribute       2954 10.4    0.068    0.111    1.038    1.222
 dbcsr_multiply_generic            1225 10.3    0.029    0.036    1.040    1.085
 integrate_four_center_load         339 10.8    0.001    0.001    0.548    1.062
 hfx_load_balance                     1 11.0    0.000    0.000    0.548    1.062
 hfx_load_balance_range               1 12.0    0.000    0.000    0.542    1.056
 parallel_gemm_fm                  1291  8.2    0.001    0.001    0.937    1.050
 parallel_gemm_fm_cosma            1291  9.2    0.936    1.049    0.936    1.049
 integrate_four_center_dist_KS      339 10.8    0.042    0.050    1.032    1.036
 fft_wrap_pw1pw2_30                 400 11.9    0.013    0.016    0.671    1.021
 transfer_rs2pw_10                  201 11.8    0.314    0.356    0.856    0.990
 calculate_rho0_atom                600  9.7    0.917    0.968    0.917    0.968
 mp_alltoall_i22                   3922 11.4    0.727    0.933    0.727    0.933
 copy_fm_to_dbcsr                  1985  9.5    0.005    0.006    0.718    0.926
 transfer_pw2rs_10                  199 12.0    0.189    0.217    0.776    0.872
 qs_scf_new_mos                      59  5.0    0.001    0.001    0.797    0.828
 prepare_dr1dr                      700 11.1    0.651    0.811    0.651    0.811
 grid_integrate_task_list           199 10.0    0.100    0.809    0.100    0.809
 rs_gather_matrices                 199 10.0    0.003    0.019    0.130    0.789
 cp_dbcsr_sm_fm_multiply_core       886  9.6    0.001    0.002    0.733    0.774
 tddfpt_print_nto_analysis            1  6.0    0.001    0.002    0.737    0.745
 calc_pair_dist_radii                 1 10.0    0.425    0.445    0.657    0.699
 tddfpt_construct_ground_state_       1  6.0    0.000    0.000    0.655    0.660
 powell_optimize                 375026 11.0    0.588    0.647    0.588    0.647
 copy_dbcsr_to_fm                   967  9.3    0.007    0.007    0.568    0.628
 cp_fm_diag_elpa                     88  7.3    0.000    0.000    0.599    0.604
 eigensolver_symm                    59  6.0    0.005    0.006    0.583    0.587
 pw_poisson_rebuild                 199 10.4    0.000    0.000    0.552    0.575
 ps_wavelet_create                    1 10.0    0.000    0.000    0.552    0.575
 RS_z_slice_distribution              1 11.0    0.225    0.252    0.552    0.575
 offload_free_buffer                207 10.1    0.273    0.537    0.273    0.537
 cp_fm_diag_elpa_base                88  8.4    0.339    0.513    0.344    0.525
 tddfpt_orthonormalize_psi1_psi       8  6.9    0.006    0.007    0.417    0.509
 multiply_cannon                   1225 11.3    0.070    0.083    0.432    0.477
 init_scf_run                         1  3.0    0.000    0.000    0.451    0.451
 scf_env_initial_rho_setup            1  4.0    0.000    0.000    0.442    0.442
 cp_fm_redistribute_end             108  8.2    0.220    0.417    0.226    0.422
 cp_dbcsr_plus_fm_fm_t              199  8.4    0.002    0.002    0.407    0.420
 mp_isendrecv_dv                 136652 12.3    0.111    0.402    0.111    0.402
 mp_rank_compare                   4053 14.1    0.331    0.363    0.331    0.363
 fft_wrap_pw1pw2_10                 400 11.9    0.004    0.004    0.253    0.353
 make_m2s                          2450 11.3    0.019    0.020    0.300    0.336
 cp_fm_geeig                         20  7.0    0.001    0.001    0.331    0.333
 multiply_cannon_loop              1225 12.3    0.052    0.054    0.272    0.328
 scale_and_distribute               398 11.4    0.233    0.315    0.233    0.315
 qs_energies_init_hamiltonians        1  3.0    0.000    0.000    0.305    0.305
 build_core_hamiltonian_matrix        1  4.0    0.000    0.000    0.302    0.302
 overlap_condnum                      1  5.0    0.000    0.000    0.298    0.301
 tddfpt_compute_residual_vects        6  7.0    0.000    0.000    0.294    0.296
 make_images                       2450 12.3    0.048    0.050    0.255    0.290
 arnoldi_conjugate_gradient           5  6.0    0.006    0.008    0.265    0.265
 cp_fm_trace_a1b1t1_aa            10080  8.0    0.017    0.018    0.198    0.249
 mp_alltoall_z11v                   400 14.9    0.151    0.226    0.151    0.226
 create_kernel_env                    1  6.0    0.000    0.000    0.203    0.223
 xc_prep_2nd_deriv                    1  7.0    0.000    0.000    0.203    0.223
 dbcsr_desymmetrize_deep            968 10.3    0.010    0.012    0.175    0.220
 xc_2nd_deriv_of_r                  560 10.0    0.001    0.029    0.004    0.219
 pw_scale                           516  9.5    0.156    0.213    0.156    0.213
 tddfpt_apply_energy_diff             7  8.0    0.000    0.000    0.196    0.196
 qs_init_subsys                       1  2.0    0.002    0.002    0.179    0.179
 dbcsr_sym_matrix_vector_mult      2044  7.0    0.015    0.016    0.127    0.164
 qs_env_setup                         1  3.0    0.000    0.000    0.157    0.159
 qs_env_rebuild_pw_env                2  3.5    0.000    0.000    0.156    0.159
 pw_env_rebuild                       1  5.0    0.000    0.000    0.156    0.159
 mp_cart_create                    1569 10.7    0.134    0.150    0.135    0.152
 multiply_cannon_metrocomm3       19600 13.3    0.027    0.028    0.079    0.140
 make_images_sizes                 2450 13.3    0.002    0.002    0.130    0.139
 mp_alltoall_i44                   2450 14.3    0.128    0.137    0.128    0.137
 tddfpt_orthogonalize_psi1_psi0       8  6.9    0.000    0.000    0.084    0.136
 yz_to_xz                           199 14.0    0.008    0.018    0.086    0.135
 rs_grid_create                     205 10.3    0.001    0.001    0.013    0.133
 offload_create_buffer              207 11.2    0.012    0.132    0.012    0.132
 mp_cart_sub                       1937 11.3    0.129    0.131    0.129    0.131
 dbcsr_finalize                    8832 11.3    0.015    0.025    0.093    0.124
 pw_grid_setup                        4  6.0    0.000    0.000    0.115    0.117
 pw_grid_setup_internal               4  7.0    0.002    0.002    0.115    0.117
 calculate_dm_sparse                 59  6.0    0.000    0.000    0.105    0.113
 xz_to_yz                           201 13.8    0.006    0.007    0.080    0.111
 create_qs_kind_set                   1  2.0    0.000    0.000    0.097    0.097
 read_qs_kind                         3  3.0    0.034    0.047    0.097    0.097
 dbcsr_merge_all                   7465 12.4    0.041    0.075    0.060    0.093
 scf_post_calculation_gpw             1  3.0    0.000    0.000    0.088    0.088
 write_available_results              1  4.0    0.000    0.000    0.088    0.088
 write_mo_free_results                1  5.0    0.003    0.004    0.088    0.088
 -------------------------------------------------------------------------------

 The number of warnings for this run is : 1
 
 -------------------------------------------------------------------------------
  **** **** ******  **  PROGRAM ENDED AT                 2025-04-21 15:34:57.895
 ***** ** ***  *** **   PROGRAM RAN ON                                  n2cn0172
 **    ****   ******    PROGRAM RAN BY                                  metdyn02
 ***** **    ** ** **   PROGRAM PROCESS ID                               2960296
  **** **  *******  **  PROGRAM STOPPED IN /scratch/hpc-prf-metdyn/metdyn02_Remi
                                           /10_MOL/05_MOL/W4-11+ALK/ketene/TZVP/
                                           TDDFT/RILIM
