 DBCSR| CPU Multiplication driver                                           BLAS (U)
 DBCSR| Multrec recursion limit                                              512 (U)
 DBCSR| Multiplication stack size                                           1000 (D)
 DBCSR| Maximum elements for images                                    UNLIMITED (U)
 DBCSR| Multiplicative factor virtual images                                   1 (U)
 DBCSR| Use multiplication densification                                       T (D)
 DBCSR| Multiplication size stacks                                             3 (U)
 DBCSR| Use memory pool for CPU allocation                                     F (U)
 DBCSR| Number of 3D layers                                               SINGLE (U)
 DBCSR| Use MPI memory allocation                                              F (U)
 DBCSR| Use RMA algorithm                                                      F (U)
 DBCSR| Use Communication thread                                               T (U)
 DBCSR| Communication thread load                                             75 (D)
 DBCSR| MPI: My process id                                                     0
 DBCSR| MPI: Number of processes                                             216
 DBCSR| OMP: Current number of threads                                         4
 DBCSR| OMP: Max number of threads                                             4
 DBCSR| Split modifier for TAS multiplication algorithm                  1.0E+00 (U)


  **** **** ******  **  PROGRAM STARTED AT               2025-04-02 10:49:16.233
 ***** ** ***  *** **   PROGRAM STARTED ON                          i04r01c04s01
 **    ****   ******    PROGRAM STARTED BY                               di38fab
 ***** **    ** ** **   PROGRAM PROCESS ID                               1321938
  **** **  *******  **  PROGRAM STARTED IN /hppfs/scratch/04/di38fab/07_MOL_non_
                                           aug/05_MOL_non_aug/05_MOL/aUKBqsEOTmq
                                           69kFe5R_nOg/5k_set_final_qzvp/VABHUB/
                                           cc-pV5Z/TDDFT

 CP2K| version string:                 CP2K version 2025.1 (Development Version)
 CP2K| source code revision number:                                  git:d2e611a
 CP2K| cp2kflags: omp libint fftw3 libxc parallel scalapack max_contr=4         
 CP2K| is freely available from                            https://www.cp2k.org/
 CP2K| Program compiled at                       Thu 06 Mar 2025 05:09:20 PM CET
 CP2K| Program compiled on                                               login02
 CP2K| Program compiled for                                        Supermuc-foss
 CP2K| Data directory path                  /hppfs/work/pn36zo/di38fab/cp2k/data
 CP2K| Input file name                                                    GW.inp

 GLOBAL| Force Environment number                                              1
 GLOBAL| Basis set file name            /hppfs/scratch/04/di38fab/04_TMD/BASIS_A
 GLOBAL| Potential file name            /hppfs/work/pn36zo/di38fab/cp2k/data/ALL
 GLOBAL| MM Potential file name                                     MM_POTENTIAL
 GLOBAL| Coordinate file name                                      __STD_INPUT__
 GLOBAL| Method name                                                        CP2K
 GLOBAL| Project name                                                       MoS2
 GLOBAL| Run type                                                         ENERGY
 GLOBAL| FFT library                                                       FFTW3
 GLOBAL| Diagonalization library                                       ScaLAPACK
 GLOBAL| DGEMM library                                                      BLAS
 GLOBAL| Orthonormality check for eigenvectors                          DISABLED
 GLOBAL| Matrix multiplication library                                 ScaLAPACK
 GLOBAL| All-to-all communication in single precision                          F
 GLOBAL| FFTs using library dependent lengths                                  F
 GLOBAL| Grid backend                                                       AUTO
 GLOBAL| Global print level                                               MEDIUM
 GLOBAL| MPI I/O enabled                                                       T
 GLOBAL| Total number of message passing processes                           216
 GLOBAL| Number of threads for this process                                    4
 GLOBAL| This output is from process                                           0
 GLOBAL| OpenMP stack size per thread (OMP_STACKSIZE)                    default
 GLOBAL| CPU model name             Intel(R) Xeon(R) Platinum 8174 CPU @ 3.10GHz

 MEMORY| system memory details [Kb]
 MEMORY|                        rank 0           min           max       average
 MEMORY| MemTotal             98436664      98436620      98436736      98436676
 MEMORY| MemFree              84060732      83258072      84245244      83783998
 MEMORY| Buffers                     0             0             0             0
 MEMORY| Cached                2459372       2391368       2819632       2568971
 MEMORY| Slab                  1238964       1146924       1262832       1214558
 MEMORY| SReclaimable           280076        257312        282748        271718
 MEMORY| MemLikelyFree        86800180      86303976      86984380      86624688


 *** Fundamental physical constants (SI units) ***

 *** Literature: B. J. Mohr and B. N. Taylor,
 ***             CODATA recommended values of the fundamental physical
 ***             constants: 2006, Web Version 5.1
 ***             http://physics.nist.gov/constants

 Speed of light in vacuum [m/s]                             2.99792458000000E+08
 Magnetic constant or permeability of vacuum [N/A**2]       1.25663706143592E-06
 Electric constant or permittivity of vacuum [F/m]          8.85418781762039E-12
 Planck constant (h) [J*s]                                  6.62606896000000E-34
 Planck constant (h-bar) [J*s]                              1.05457162825177E-34
 Elementary charge [C]                                      1.60217648700000E-19
 Electron mass [kg]                                         9.10938215000000E-31
 Electron g factor [ ]                                     -2.00231930436220E+00
 Proton mass [kg]                                           1.67262163700000E-27
 Fine-structure constant                                    7.29735253760000E-03
 Rydberg constant [1/m]                                     1.09737315685270E+07
 Avogadro constant [1/mol]                                  6.02214179000000E+23
 Boltzmann constant [J/K]                                   1.38065040000000E-23
 Atomic mass unit [kg]                                      1.66053878200000E-27
 Bohr radius [m]                                            5.29177208590000E-11

 *** Conversion factors ***

 [u] -> [a.u.]                                              1.82288848426455E+03
 [Angstrom] -> [Bohr] = [a.u.]                              1.88972613288564E+00
 [a.u.] = [Bohr] -> [Angstrom]                              5.29177208590000E-01
 [a.u.] -> [s]                                              2.41888432650478E-17
 [a.u.] -> [fs]                                             2.41888432650478E-02
 [a.u.] -> [J]                                              4.35974393937059E-18
 [a.u.] -> [N]                                              8.23872205491840E-08
 [a.u.] -> [K]                                              3.15774647902944E+05
 [a.u.] -> [kJ/mol]                                         2.62549961709828E+03
 [a.u.] -> [kcal/mol]                                       6.27509468713739E+02
 [a.u.] -> [Pa]                                             2.94210107994716E+13
 [a.u.] -> [bar]                                            2.94210107994716E+08
 [a.u.] -> [atm]                                            2.90362800883016E+08
 [a.u.] -> [eV]                                             2.72113838565563E+01
 [a.u.] -> [Hz]                                             6.57968392072181E+15
 [a.u.] -> [1/cm] (wave numbers)                            2.19474631370540E+05
 [a.u./Bohr**2] -> [1/cm]                                   5.14048714338585E+03
 

 CELL_TOP| Volume [angstrom^3]:                                     27000.000000
 CELL_TOP| Vector a [angstrom    30.000     0.000     0.000   |a| =    30.000000
 CELL_TOP| Vector b [angstrom     0.000    30.000     0.000   |b| =    30.000000
 CELL_TOP| Vector c [angstrom     0.000     0.000    30.000   |c| =    30.000000
 CELL_TOP| Angle (b,c), alpha [degree]:                                90.000000
 CELL_TOP| Angle (a,c), beta  [degree]:                                90.000000
 CELL_TOP| Angle (a,b), gamma [degree]:                                90.000000
 CELL_TOP| Numerically orthorhombic:                                         YES
 CELL_TOP| Periodicity                                                      NONE

 GENERATE|  Preliminary Number of Bonds generated:                             0
 GENERATE|  Achieved consistency in connectivity generation.

 CELL| Volume [angstrom^3]:                                         27000.000000
 CELL| Vector a [angstrom]:      30.000     0.000     0.000   |a| =    30.000000
 CELL| Vector b [angstrom]:       0.000    30.000     0.000   |b| =    30.000000
 CELL| Vector c [angstrom]:       0.000     0.000    30.000   |c| =    30.000000
 CELL| Angle (b,c), alpha [degree]:                                    90.000000
 CELL| Angle (a,c), beta  [degree]:                                    90.000000
 CELL| Angle (a,b), gamma [degree]:                                    90.000000
 CELL| Numerically orthorhombic:                                             YES
 CELL| Periodicity                                                          NONE

 CELL_REF| Volume [angstrom^3]:                                     27000.000000
 CELL_REF| Vector a [angstrom    30.000     0.000     0.000   |a| =    30.000000
 CELL_REF| Vector b [angstrom     0.000    30.000     0.000   |b| =    30.000000
 CELL_REF| Vector c [angstrom     0.000     0.000    30.000   |c| =    30.000000
 CELL_REF| Angle (b,c), alpha [degree]:                                90.000000
 CELL_REF| Angle (a,c), beta  [degree]:                                90.000000
 CELL_REF| Angle (a,b), gamma [degree]:                                90.000000
 CELL_REF| Numerically orthorhombic:                                         YES
 CELL_REF| Periodicity                                                      NONE

 *******************************************************************************
 *******************************************************************************
 **                                                                           **
 **     #####                         ##              ##                      **
 **    ##   ##            ##          ##              ##                      **
 **   ##     ##                       ##            ######                    **
 **   ##     ##  ##   ##  ##   #####  ##  ##   ####   ##    #####    #####    **
 **   ##     ##  ##   ##  ##  ##      ## ##   ##      ##   ##   ##  ##   ##   **
 **   ##  ## ##  ##   ##  ##  ##      ####     ###    ##   ######   ######    **
 **    ##  ###   ##   ##  ##  ##      ## ##      ##   ##   ##       ##        **
 **     #######   #####   ##   #####  ##  ##  ####    ##    #####   ##        **
 **           ##                                                    ##        **
 **                                                                           **
 **                                                ... make the atoms dance   **
 **                                                                           **
 **            Copyright (C) by CP2K developers group (2000-2025)             **
 **                      J. Chem. Phys. 152, 194103 (2020)                    **
 **                                                                           **
 *******************************************************************************

 DFT| Spin restricted Kohn-Sham (RKS) calculation                            RKS
 DFT| Multiplicity                                                             1
 DFT| Number of spin states                                                    1
 DFT| Charge                                                                   0
 DFT| Self-interaction correction (SIC)                                       NO
 DFT| Cutoffs: density                                              1.000000E-10
 DFT|          gradient                                             1.000000E-10
 DFT|          tau                                                  1.000000E-10
 DFT|          cutoff_smoothing_range                               0.000000E+00
 DFT| XC density smoothing                                                  NONE
 DFT| XC derivatives                                                          PW

 FUNCTIONAL| PBE:
 FUNCTIONAL| J.P.Perdew, K.Burke, M.Ernzerhof, Phys. Rev. Letter, vol. 77, n 18,
 FUNCTIONAL|  pp. 3865-3868, (1996)sx=0.750sc=1.000{spin unpolarized}           


 QS| Method:                                                                GAPW
 QS| Density plane wave grid type                        NON-SPHERICAL FULLSPACE
 QS| Number of grid levels:                                                    4
 QS| Density cutoff [a.u.]:                                                250.0
 QS| Multi grid cutoff [a.u.]: 1) grid level                               250.0
 QS|                           2) grid level                                83.3
 QS|                           3) grid level                                27.8
 QS|                           4) grid level                                 9.3
 QS| Grid level progression factor:                                          3.0
 QS| Relative density cutoff [a.u.]:                                        50.0
 QS| Interaction thresholds: eps_pgf_orb:                                1.0E-12
 QS|                         eps_filter_matrix:                          0.0E+00
 QS|                         eps_core_charge:                            1.0E-14
 QS|                         eps_rho_gspace:                             1.0E-12
 QS|                         eps_rho_rspace:                             1.0E-12
 QS|                         eps_gvg_rspace:                             1.0E-06
 QS|                         eps_ppl:                                    1.0E-02
 QS|                         eps_ppnl:                                   1.0E-08
 QS| GAPW|      One center basis from orbital basis primitives
 QS| GAPW|                   eps_fit:                                    1.0E-04
 QS| GAPW|                   eps_iso:                                    1.0E-12
 QS| GAPW|                   eps_svd:                                    1.0E-08
 QS| GAPW|                   eps_cpc:                                    1.0E-12
 QS| GAPW|   atom-r-grid: quadrature:                                     GC_LOG
 QS| GAPW|      atom-s-grid:  max l :                                         10
 QS| GAPW|      max_l_rho0 :                                                   2


 ATOMIC KIND INFORMATION

  1. Atomic kind: S                                     Number of atoms:       3

     Orbital Basis Set                                                   cc-pV5Z

       Number of orbital shell sets:                                           6
       Number of orbital shells:                                              23
       Number of primitive Cartesian functions:                               42
       Number of Cartesian basis functions:                                  130
       Number of spherical basis functions:                                   95
       Norm type:                                                              2

       Normalised Cartesian orbitals:

                        Set   Shell   Orbital            Exponent    Coefficient

                          1       1    1px            2200.000000       5.133994
                                                       521.400000       7.375833
                                                       169.000000       9.759369
                                                        64.050000      11.382094
                                                        26.720000      11.185118
                                                        11.830000       8.415060
                                                         5.378000       4.419868
                                                         2.482000       1.317879
                                                         1.116000       0.127478
                                                         0.484800       0.001183
                                                         0.200600       0.000275
                                                         0.079510      -0.000004
                          1       1    1py            2200.000000       5.133994
                                                       521.400000       7.375833
                                                       169.000000       9.759369
                                                        64.050000      11.382094
                                                        26.720000      11.185118
                                                        11.830000       8.415060
                                                         5.378000       4.419868
                                                         2.482000       1.317879
                                                         1.116000       0.127478
                                                         0.484800       0.001183
                                                         0.200600       0.000275
                                                         0.079510      -0.000004
                          1       1    1pz            2200.000000       5.133994
                                                       521.400000       7.375833
                                                       169.000000       9.759369
                                                        64.050000      11.382094
                                                        26.720000      11.185118
                                                        11.830000       8.415060
                                                         5.378000       4.419868
                                                         2.482000       1.317879
                                                         1.116000       0.127478
                                                         0.484800       0.001183
                                                         0.200600       0.000275
                                                         0.079510      -0.000004

                          1       2    2px            2200.000000       0.000000
                                                       521.400000       0.000000
                                                       169.000000       0.000000
                                                        64.050000       0.000000
                                                        26.720000       0.000000
                                                        11.830000       0.000000
                                                         5.378000       0.000000
                                                         2.482000       0.000000
                                                         1.116000       1.635010
                                                         0.484800       0.000000
                                                         0.200600       0.000000
                                                         0.079510       0.000000
                          1       2    2py            2200.000000       0.000000
                                                       521.400000       0.000000
                                                       169.000000       0.000000
                                                        64.050000       0.000000
                                                        26.720000       0.000000
                                                        11.830000       0.000000
                                                         5.378000       0.000000
                                                         2.482000       0.000000
                                                         1.116000       1.635010
                                                         0.484800       0.000000
                                                         0.200600       0.000000
                                                         0.079510       0.000000
                          1       2    2pz            2200.000000       0.000000
                                                       521.400000       0.000000
                                                       169.000000       0.000000
                                                        64.050000       0.000000
                                                        26.720000       0.000000
                                                        11.830000       0.000000
                                                         5.378000       0.000000
                                                         2.482000       0.000000
                                                         1.116000       1.635010
                                                         0.484800       0.000000
                                                         0.200600       0.000000
                                                         0.079510       0.000000

                          1       3    3px            2200.000000       0.000000
                                                       521.400000       0.000000
                                                       169.000000       0.000000
                                                        64.050000       0.000000
                                                        26.720000       0.000000
                                                        11.830000       0.000000
                                                         5.378000       0.000000
                                                         2.482000       0.000000
                                                         1.116000       0.000000
                                                         0.484800       0.576625
                                                         0.200600       0.000000
                                                         0.079510       0.000000
                          1       3    3py            2200.000000       0.000000
                                                       521.400000       0.000000
                                                       169.000000       0.000000
                                                        64.050000       0.000000
                                                        26.720000       0.000000
                                                        11.830000       0.000000
                                                         5.378000       0.000000
                                                         2.482000       0.000000
                                                         1.116000       0.000000
                                                         0.484800       0.576625
                                                         0.200600       0.000000
                                                         0.079510       0.000000
                          1       3    3pz            2200.000000       0.000000
                                                       521.400000       0.000000
                                                       169.000000       0.000000
                                                        64.050000       0.000000
                                                        26.720000       0.000000
                                                        11.830000       0.000000
                                                         5.378000       0.000000
                                                         2.482000       0.000000
                                                         1.116000       0.000000
                                                         0.484800       0.576625
                                                         0.200600       0.000000
                                                         0.079510       0.000000

                          1       4    4px            2200.000000      -1.306993
                                                       521.400000      -1.883748
                                                       169.000000      -2.500706
                                                        64.050000      -2.954633
                                                        26.720000      -2.968115
                                                        11.830000      -2.301109
                                                         5.378000      -1.258236
                                                         2.482000      -0.390671
                                                         1.116000       0.177008
                                                         0.484800       0.234734
                                                         0.200600       0.089747
                                                         0.079510       0.011126
                          1       4    4py            2200.000000      -1.306993
                                                       521.400000      -1.883748
                                                       169.000000      -2.500706
                                                        64.050000      -2.954633
                                                        26.720000      -2.968115
                                                        11.830000      -2.301109
                                                         5.378000      -1.258236
                                                         2.482000      -0.390671
                                                         1.116000       0.177008
                                                         0.484800       0.234734
                                                         0.200600       0.089747
                                                         0.079510       0.011126
                          1       4    4pz            2200.000000      -1.306993
                                                       521.400000      -1.883748
                                                       169.000000      -2.500706
                                                        64.050000      -2.954633
                                                        26.720000      -2.968115
                                                        11.830000      -2.301109
                                                         5.378000      -1.258236
                                                         2.482000      -0.390671
                                                         1.116000       0.177008
                                                         0.484800       0.234734
                                                         0.200600       0.089747
                                                         0.079510       0.011126

                          1       5    5px            2200.000000       0.000000
                                                       521.400000       0.000000
                                                       169.000000       0.000000
                                                        64.050000       0.000000
                                                        26.720000       0.000000
                                                        11.830000       0.000000
                                                         5.378000       0.000000
                                                         2.482000       0.000000
                                                         1.116000       0.000000
                                                         0.484800       0.000000
                                                         0.200600       0.191361
                                                         0.079510       0.000000
                          1       5    5py            2200.000000       0.000000
                                                       521.400000       0.000000
                                                       169.000000       0.000000
                                                        64.050000       0.000000
                                                        26.720000       0.000000
                                                        11.830000       0.000000
                                                         5.378000       0.000000
                                                         2.482000       0.000000
                                                         1.116000       0.000000
                                                         0.484800       0.000000
                                                         0.200600       0.191361
                                                         0.079510       0.000000
                          1       5    5pz            2200.000000       0.000000
                                                       521.400000       0.000000
                                                       169.000000       0.000000
                                                        64.050000       0.000000
                                                        26.720000       0.000000
                                                        11.830000       0.000000
                                                         5.378000       0.000000
                                                         2.482000       0.000000
                                                         1.116000       0.000000
                                                         0.484800       0.000000
                                                         0.200600       0.191361
                                                         0.079510       0.000000

                          1       6    6px            2200.000000       0.000000
                                                       521.400000       0.000000
                                                       169.000000       0.000000
                                                        64.050000       0.000000
                                                        26.720000       0.000000
                                                        11.830000       0.000000
                                                         5.378000       0.000000
                                                         2.482000       0.000000
                                                         1.116000       0.000000
                                                         0.484800       0.000000
                                                         0.200600       0.000000
                                                         0.079510       0.060182
                          1       6    6py            2200.000000       0.000000
                                                       521.400000       0.000000
                                                       169.000000       0.000000
                                                        64.050000       0.000000
                                                        26.720000       0.000000
                                                        11.830000       0.000000
                                                         5.378000       0.000000
                                                         2.482000       0.000000
                                                         1.116000       0.000000
                                                         0.484800       0.000000
                                                         0.200600       0.000000
                                                         0.079510       0.060182
                          1       6    6pz            2200.000000       0.000000
                                                       521.400000       0.000000
                                                       169.000000       0.000000
                                                        64.050000       0.000000
                                                        26.720000       0.000000
                                                        11.830000       0.000000
                                                         5.378000       0.000000
                                                         2.482000       0.000000
                                                         1.116000       0.000000
                                                         0.484800       0.000000
                                                         0.200600       0.000000
                                                         0.079510       0.060182

                          2       1    1s          5481000.000000       0.152860
                                                    820600.000000       0.286055
                                                    186700.000000       0.496155
                                                     52880.000000       0.813250
                                                     17250.000000       1.280498
                                                      6226.000000       1.940164
                                                      2429.000000       2.844106
                                                      1007.000000       3.984527
                                                       439.500000       5.229289
                                                       199.800000       6.162321
                                                        93.920000       6.006109
                                                        45.340000       4.148629
                                                        22.150000       1.526935
                                                        10.340000       0.170949
                                                         5.119000      -0.001093
                                                         2.553000       0.002431
                                                         1.282000      -0.000444
                                                         0.545000       0.000085
                                                         0.241100      -0.000024
                                                         0.103500       0.000003

                          2       2    2s          5481000.000000      -0.042217
                                                    820600.000000      -0.079026
                                                    186700.000000      -0.137029
                                                     52880.000000      -0.224805
                                                     17250.000000      -0.354096
                                                      6226.000000      -0.538410
                                                      2429.000000      -0.793719
                                                      1007.000000      -1.130348
                                                       439.500000      -1.530851
                                                       199.800000      -1.933828
                                                        93.920000      -2.155037
                                                        45.340000      -1.952555
                                                        22.150000      -1.016918
                                                        10.340000       0.332903
                                                         5.119000       1.045101
                                                         2.553000       0.693368
                                                         1.282000       0.134693
                                                         0.545000       0.003566
                                                         0.241100       0.000097
                                                         0.103500       0.000029

                          2       3    3s          5481000.000000       0.000000
                                                    820600.000000       0.000000
                                                    186700.000000       0.000000
                                                     52880.000000       0.000000
                                                     17250.000000       0.000000
                                                      6226.000000       0.000000
                                                      2429.000000       0.000000
                                                      1007.000000       0.000000
                                                       439.500000       0.000000
                                                       199.800000       0.000000
                                                        93.920000       0.000000
                                                        45.340000       0.000000
                                                        22.150000       0.000000
                                                        10.340000       0.000000
                                                         5.119000       0.000000
                                                         2.553000       0.000000
                                                         1.282000       0.858670
                                                         0.545000       0.000000
                                                         0.241100       0.000000
                                                         0.103500       0.000000

                          2       4    4s          5481000.000000       0.000000
                                                    820600.000000       0.000000
                                                    186700.000000       0.000000
                                                     52880.000000       0.000000
                                                     17250.000000       0.000000
                                                      6226.000000       0.000000
                                                      2429.000000       0.000000
                                                      1007.000000       0.000000
                                                       439.500000       0.000000
                                                       199.800000       0.000000
                                                        93.920000       0.000000
                                                        45.340000       0.000000
                                                        22.150000       0.000000
                                                        10.340000       0.000000
                                                         5.119000       0.000000
                                                         2.553000       0.000000
                                                         1.282000       0.000000
                                                         0.545000       0.452072
                                                         0.241100       0.000000
                                                         0.103500       0.000000

                          2       5    5s          5481000.000000       0.000000
                                                    820600.000000       0.000000
                                                    186700.000000       0.000000
                                                     52880.000000       0.000000
                                                     17250.000000       0.000000
                                                      6226.000000       0.000000
                                                      2429.000000       0.000000
                                                      1007.000000       0.000000
                                                       439.500000       0.000000
                                                       199.800000       0.000000
                                                        93.920000       0.000000
                                                        45.340000       0.000000
                                                        22.150000       0.000000
                                                        10.340000       0.000000
                                                         5.119000       0.000000
                                                         2.553000       0.000000
                                                         1.282000       0.000000
                                                         0.545000       0.000000
                                                         0.241100       0.245221
                                                         0.103500       0.000000

                          2       6    6s          5481000.000000       0.012257
                                                    820600.000000       0.022931
                                                    186700.000000       0.039797
                                                     52880.000000       0.065215
                                                     17250.000000       0.102882
                                                      6226.000000       0.156194
                                                      2429.000000       0.230890
                                                      1007.000000       0.328434
                                                       439.500000       0.447494
                                                       199.800000       0.566729
                                                        93.920000       0.642780
                                                        45.340000       0.593937
                                                        22.150000       0.327133
                                                        10.340000      -0.120415
                                                         5.119000      -0.409703
                                                         2.553000      -0.447691
                                                         1.282000      -0.117201
                                                         0.545000       0.191314
                                                         0.241100       0.150538
                                                         0.103500       0.026072

                          2       7    7s          5481000.000000       0.000000
                                                    820600.000000       0.000000
                                                    186700.000000       0.000000
                                                     52880.000000       0.000000
                                                     17250.000000       0.000000
                                                      6226.000000       0.000000
                                                      2429.000000       0.000000
                                                      1007.000000       0.000000
                                                       439.500000       0.000000
                                                       199.800000       0.000000
                                                        93.920000       0.000000
                                                        45.340000       0.000000
                                                        22.150000       0.000000
                                                        10.340000       0.000000
                                                         5.119000       0.000000
                                                         2.553000       0.000000
                                                         1.282000       0.000000
                                                         0.545000       0.000000
                                                         0.241100       0.000000
                                                         0.103500       0.130051

                          3       1    1dx2              3.203000      12.622172
                                                         1.281000       0.000000
                                                         0.512000       0.000000
                                                         0.205000       0.000000
                          3       1    1dxy              3.203000      21.862243
                                                         1.281000       0.000000
                                                         0.512000       0.000000
                                                         0.205000       0.000000
                          3       1    1dxz              3.203000      21.862243
                                                         1.281000       0.000000
                                                         0.512000       0.000000
                                                         0.205000       0.000000
                          3       1    1dy2              3.203000      12.622172
                                                         1.281000       0.000000
                                                         0.512000       0.000000
                                                         0.205000       0.000000
                          3       1    1dyz              3.203000      21.862243
                                                         1.281000       0.000000
                                                         0.512000       0.000000
                                                         0.205000       0.000000
                          3       1    1dz2              3.203000      12.622172
                                                         1.281000       0.000000
                                                         0.512000       0.000000
                                                         0.205000       0.000000

                          3       2    2dx2              3.203000       0.000000
                                                         1.281000       2.538753
                                                         0.512000       0.000000
                                                         0.205000       0.000000
                          3       2    2dxy              3.203000       0.000000
                                                         1.281000       4.397249
                                                         0.512000       0.000000
                                                         0.205000       0.000000
                          3       2    2dxz              3.203000       0.000000
                                                         1.281000       4.397249
                                                         0.512000       0.000000
                                                         0.205000       0.000000
                          3       2    2dy2              3.203000       0.000000
                                                         1.281000       2.538753
                                                         0.512000       0.000000
                                                         0.205000       0.000000
                          3       2    2dyz              3.203000       0.000000
                                                         1.281000       4.397249
                                                         0.512000       0.000000
                                                         0.205000       0.000000
                          3       2    2dz2              3.203000       0.000000
                                                         1.281000       2.538753
                                                         0.512000       0.000000
                                                         0.205000       0.000000

                          3       3    3dx2              3.203000       0.000000
                                                         1.281000       0.000000
                                                         0.512000       0.510072
                                                         0.205000       0.000000
                          3       3    3dxy              3.203000       0.000000
                                                         1.281000       0.000000
                                                         0.512000       0.883471
                                                         0.205000       0.000000
                          3       3    3dxz              3.203000       0.000000
                                                         1.281000       0.000000
                                                         0.512000       0.883471
                                                         0.205000       0.000000
                          3       3    3dy2              3.203000       0.000000
                                                         1.281000       0.000000
                                                         0.512000       0.510072
                                                         0.205000       0.000000
                          3       3    3dyz              3.203000       0.000000
                                                         1.281000       0.000000
                                                         0.512000       0.883471
                                                         0.205000       0.000000
                          3       3    3dz2              3.203000       0.000000
                                                         1.281000       0.000000
                                                         0.512000       0.510072
                                                         0.205000       0.000000

                          3       4    4dx2              3.203000       0.000000
                                                         1.281000       0.000000
                                                         0.512000       0.000000
                                                         0.205000       0.102797
                          3       4    4dxy              3.203000       0.000000
                                                         1.281000       0.000000
                                                         0.512000       0.000000
                                                         0.205000       0.178049
                          3       4    4dxz              3.203000       0.000000
                                                         1.281000       0.000000
                                                         0.512000       0.000000
                                                         0.205000       0.178049
                          3       4    4dy2              3.203000       0.000000
                                                         1.281000       0.000000
                                                         0.512000       0.000000
                                                         0.205000       0.102797
                          3       4    4dyz              3.203000       0.000000
                                                         1.281000       0.000000
                                                         0.512000       0.000000
                                                         0.205000       0.178049
                          3       4    4dz2              3.203000       0.000000
                                                         1.281000       0.000000
                                                         0.512000       0.000000
                                                         0.205000       0.102797

                          4       1    1fx3              1.096000       1.809373
                                                         0.529000       0.000000
                                                         0.255000       0.000000
                          4       1    1fx2y             1.096000       4.045882
                                                         0.529000       0.000000
                                                         0.255000       0.000000
                          4       1    1fx2z             1.096000       4.045882
                                                         0.529000       0.000000
                                                         0.255000       0.000000
                          4       1    1fxy2             1.096000       4.045882
                                                         0.529000       0.000000
                                                         0.255000       0.000000
                          4       1    1fxyz             1.096000       7.007673
                                                         0.529000       0.000000
                                                         0.255000       0.000000
                          4       1    1fxz2             1.096000       4.045882
                                                         0.529000       0.000000
                                                         0.255000       0.000000
                          4       1    1fy3              1.096000       1.809373
                                                         0.529000       0.000000
                                                         0.255000       0.000000
                          4       1    1fy2z             1.096000       4.045882
                                                         0.529000       0.000000
                                                         0.255000       0.000000
                          4       1    1fyz2             1.096000       4.045882
                                                         0.529000       0.000000
                                                         0.255000       0.000000
                          4       1    1fz3              1.096000       1.809373
                                                         0.529000       0.000000
                                                         0.255000       0.000000

                          4       2    2fx3              1.096000       0.000000
                                                         0.529000       0.351342
                                                         0.255000       0.000000
                          4       2    2fx2y             1.096000       0.000000
                                                         0.529000       0.785624
                                                         0.255000       0.000000
                          4       2    2fx2z             1.096000       0.000000
                                                         0.529000       0.785624
                                                         0.255000       0.000000
                          4       2    2fxy2             1.096000       0.000000
                                                         0.529000       0.785624
                                                         0.255000       0.000000
                          4       2    2fxyz             1.096000       0.000000
                                                         0.529000       1.360741
                                                         0.255000       0.000000
                          4       2    2fxz2             1.096000       0.000000
                                                         0.529000       0.785624
                                                         0.255000       0.000000
                          4       2    2fy3              1.096000       0.000000
                                                         0.529000       0.351342
                                                         0.255000       0.000000
                          4       2    2fy2z             1.096000       0.000000
                                                         0.529000       0.785624
                                                         0.255000       0.000000
                          4       2    2fyz2             1.096000       0.000000
                                                         0.529000       0.785624
                                                         0.255000       0.000000
                          4       2    2fz3              1.096000       0.000000
                                                         0.529000       0.351342
                                                         0.255000       0.000000

                          4       3    3fx3              1.096000       0.000000
                                                         0.529000       0.000000
                                                         0.255000       0.068025
                          4       3    3fx2y             1.096000       0.000000
                                                         0.529000       0.000000
                                                         0.255000       0.152109
                          4       3    3fx2z             1.096000       0.000000
                                                         0.529000       0.000000
                                                         0.255000       0.152109
                          4       3    3fxy2             1.096000       0.000000
                                                         0.529000       0.000000
                                                         0.255000       0.152109
                          4       3    3fxyz             1.096000       0.000000
                                                         0.529000       0.000000
                                                         0.255000       0.263460
                          4       3    3fxz2             1.096000       0.000000
                                                         0.529000       0.000000
                                                         0.255000       0.152109
                          4       3    3fy3              1.096000       0.000000
                                                         0.529000       0.000000
                                                         0.255000       0.068025
                          4       3    3fy2z             1.096000       0.000000
                                                         0.529000       0.000000
                                                         0.255000       0.152109
                          4       3    3fyz2             1.096000       0.000000
                                                         0.529000       0.000000
                                                         0.255000       0.152109
                          4       3    3fz3              1.096000       0.000000
                                                         0.529000       0.000000
                                                         0.255000       0.068025

                          5       1    1gx4              1.071000       1.343868
                                                         0.463000       0.000000
                          5       1    1gx3y             1.071000       3.555539
                                                         0.463000       0.000000
                          5       1    1gx3z             1.071000       3.555539
                                                         0.463000       0.000000
                          5       1    1gx2y2            1.071000       4.590182
                                                         0.463000       0.000000
                          5       1    1gx2yz            1.071000       7.950428
                                                         0.463000       0.000000
                          5       1    1gx2z2            1.071000       4.590182
                                                         0.463000       0.000000
                          5       1    1gxy3             1.071000       3.555539
                                                         0.463000       0.000000
                          5       1    1gxy2z            1.071000       7.950428
                                                         0.463000       0.000000
                          5       1    1gxyz2            1.071000       7.950428
                                                         0.463000       0.000000
                          5       1    1gxz3             1.071000       3.555539
                                                         0.463000       0.000000
                          5       1    1gy4              1.071000       1.343868
                                                         0.463000       0.000000
                          5       1    1gy3z             1.071000       3.555539
                                                         0.463000       0.000000
                          5       1    1gy2z2            1.071000       4.590182
                                                         0.463000       0.000000
                          5       1    1gyz3             1.071000       3.555539
                                                         0.463000       0.000000
                          5       1    1gz4              1.071000       1.343868
                                                         0.463000       0.000000

                          5       2    2gx4              1.071000       0.000000
                                                         0.463000       0.133901
                          5       2    2gx3y             1.071000       0.000000
                                                         0.463000       0.354268
                          5       2    2gx3z             1.071000       0.000000
                                                         0.463000       0.354268
                          5       2    2gx2y2            1.071000       0.000000
                                                         0.463000       0.457358
                          5       2    2gx2yz            1.071000       0.000000
                                                         0.463000       0.792168
                          5       2    2gx2z2            1.071000       0.000000
                                                         0.463000       0.457358
                          5       2    2gxy3             1.071000       0.000000
                                                         0.463000       0.354268
                          5       2    2gxy2z            1.071000       0.000000
                                                         0.463000       0.792168
                          5       2    2gxyz2            1.071000       0.000000
                                                         0.463000       0.792168
                          5       2    2gxz3             1.071000       0.000000
                                                         0.463000       0.354268
                          5       2    2gy4              1.071000       0.000000
                                                         0.463000       0.133901
                          5       2    2gy3z             1.071000       0.000000
                                                         0.463000       0.354268
                          5       2    2gy2z2            1.071000       0.000000
                                                         0.463000       0.457358
                          5       2    2gyz3             1.071000       0.000000
                                                         0.463000       0.354268
                          5       2    2gz4              1.071000       0.000000
                                                         0.463000       0.133901

                          6       1    1hx5              0.872000       0.475360
                          6       1    1hx4y             0.872000       1.426080
                          6       1    1hx4z             0.872000       1.426080
                          6       1    1hx3y2            0.872000       2.178374
                          6       1    1hx3yz            0.872000       3.773054
                          6       1    1hx3z2            0.872000       2.178374
                          6       1    1hx2y3            0.872000       2.178374
                          6       1    1hx2y2z           0.872000       4.870992
                          6       1    1hx2yz2           0.872000       4.870992
                          6       1    1hx2z3            0.872000       2.178374
                          6       1    1hxy4             0.872000       1.426080
                          6       1    1hxy3z            0.872000       3.773054
                          6       1    1hxy2z2           0.872000       4.870992
                          6       1    1hxyz3            0.872000       3.773054
                          6       1    1hxz4             0.872000       1.426080
                          6       1    1hy5              0.872000       0.475360
                          6       1    1hy4z             0.872000       1.426080
                          6       1    1hy3z2            0.872000       2.178374
                          6       1    1hy2z3            0.872000       2.178374
                          6       1    1hyz4             0.872000       1.426080
                          6       1    1hz5              0.872000       0.475360

     RI Auxiliary Basis Set                                        cc-pV5Z-RIFIT

       Number of orbital shell sets:                                          48
       Number of orbital shells:                                              48
       Number of primitive Cartesian functions:                               48
       Number of Cartesian basis functions:                                  335
       Number of spherical basis functions:                                  230
       Norm type:                                                              2

       Normalised Cartesian orbitals:

                        Set   Shell   Orbital            Exponent    Coefficient

                          1       1    1s                0.157649       0.178311

                          2       1    1dx2              0.197272       0.096111
                          2       1    1dxy              0.197272       0.166469
                          2       1    1dxz              0.197272       0.166469
                          2       1    1dy2              0.197272       0.096111
                          2       1    1dyz              0.197272       0.166469
                          2       1    1dz2              0.197272       0.096111

                          3       1    1px               0.209989       0.202622
                          3       1    1py               0.209989       0.202622
                          3       1    1pz               0.209989       0.202622

                          4       1    1s                0.279888       0.274251

                          5       1    1fx3              0.352049       0.140544
                          5       1    1fx2y             0.352049       0.314265
                          5       1    1fx2z             0.352049       0.314265
                          5       1    1fxy2             0.352049       0.314265
                          5       1    1fxyz             0.352049       0.544324
                          5       1    1fxz2             0.352049       0.314265
                          5       1    1fy3              0.352049       0.140544
                          5       1    1fy2z             0.352049       0.314265
                          5       1    1fyz2             0.352049       0.314265
                          5       1    1fz3              0.352049       0.140544

                          6       1    1dx2              0.362559       0.278819
                          6       1    1dxy              0.362559       0.482928
                          6       1    1dxz              0.362559       0.482928
                          6       1    1dy2              0.362559       0.278819
                          6       1    1dyz              0.362559       0.482928
                          6       1    1dz2              0.362559       0.278819

                          7       1    1gx4              0.397931       0.088289
                          7       1    1gx3y             0.397931       0.233591
                          7       1    1gx3z             0.397931       0.233591
                          7       1    1gx2y2            0.397931       0.301564
                          7       1    1gx2yz            0.397931       0.522325
                          7       1    1gx2z2            0.397931       0.301564
                          7       1    1gxy3             0.397931       0.233591
                          7       1    1gxy2z            0.397931       0.522325
                          7       1    1gxyz2            0.397931       0.522325
                          7       1    1gxz3             0.397931       0.233591
                          7       1    1gy4              0.397931       0.088289
                          7       1    1gy3z             0.397931       0.233591
                          7       1    1gy2z2            0.397931       0.301564
                          7       1    1gyz3             0.397931       0.233591
                          7       1    1gz4              0.397931       0.088289

                          8       1    1px               0.416555       0.477013
                          8       1    1py               0.416555       0.477013
                          8       1    1pz               0.416555       0.477013

                          9       1    1s                0.571860       0.468681

                         10       1    1px               0.651606       0.834491
                         10       1    1py               0.651606       0.834491
                         10       1    1pz               0.651606       0.834491

                         11       1    1fx3              0.652248       0.562838
                         11       1    1fx2y             0.652248       1.258543
                         11       1    1fx2z             0.652248       1.258543
                         11       1    1fxy2             0.652248       1.258543
                         11       1    1fxyz             0.652248       2.179861
                         11       1    1fxz2             0.652248       1.258543
                         11       1    1fy3              0.652248       0.562838
                         11       1    1fy2z             0.652248       1.258543
                         11       1    1fyz2             0.652248       1.258543
                         11       1    1fz3              0.652248       0.562838

                         12       1    1dx2              0.682681       0.843899
                         12       1    1dxy              0.682681       1.461676
                         12       1    1dxz              0.682681       1.461676
                         12       1    1dy2              0.682681       0.843899
                         12       1    1dyz              0.682681       1.461676
                         12       1    1dz2              0.682681       0.843899

                         13       1    1hx5              0.718603       0.253474
                         13       1    1hx4y             0.718603       0.760422
                         13       1    1hx4z             0.718603       0.760422
                         13       1    1hx3y2            0.718603       1.161564
                         13       1    1hx3yz            0.718603       2.011888
                         13       1    1hx3z2            0.718603       1.161564
                         13       1    1hx2y3            0.718603       1.161564
                         13       1    1hx2y2z           0.718603       2.597336
                         13       1    1hx2yz2           0.718603       2.597336
                         13       1    1hx2z3            0.718603       1.161564
                         13       1    1hxy4             0.718603       0.760422
                         13       1    1hxy3z            0.718603       2.011888
                         13       1    1hxy2z2           0.718603       2.597336
                         13       1    1hxyz3            0.718603       2.011888
                         13       1    1hxz4             0.718603       0.760422
                         13       1    1hy5              0.718603       0.253474
                         13       1    1hy4z             0.718603       0.760422
                         13       1    1hy3z2            0.718603       1.161564
                         13       1    1hy2z3            0.718603       1.161564
                         13       1    1hyz4             0.718603       0.760422
                         13       1    1hz5              0.718603       0.253474

                         14       1    1gx4              0.800123       0.602721
                         14       1    1gx3y             0.800123       1.594651
                         14       1    1gx3z             0.800123       1.594651
                         14       1    1gx2y2            0.800123       2.058685
                         14       1    1gx2yz            0.800123       3.565747
                         14       1    1gx2z2            0.800123       2.058685
                         14       1    1gxy3             0.800123       1.594651
                         14       1    1gxy2z            0.800123       3.565747
                         14       1    1gxyz2            0.800123       3.565747
                         14       1    1gxz3             0.800123       1.594651
                         14       1    1gy4              0.800123       0.602721
                         14       1    1gy3z             0.800123       1.594651
                         14       1    1gy2z2            0.800123       2.058685
                         14       1    1gyz3             0.800123       1.594651
                         14       1    1gz4              0.800123       0.602721

                         15       1    1s                0.892243       0.654293

                         16       1    1px               0.942964       1.324521
                         16       1    1py               0.942964       1.324521
                         16       1    1pz               0.942964       1.324521

                         17       1    1ix6              1.217610       0.936124
                         17       1    1ix5y             1.217610       3.104774
                         17       1    1ix5z             1.217610       3.104774
                         17       1    1ix4y2            1.217610       5.377626
                         17       1    1ix4yz            1.217610       9.314321
                         17       1    1ix4z2            1.217610       5.377626
                         17       1    1ix3y3            1.217610       6.362892
                         17       1    1ix3y2z           1.217610      14.227860
                         17       1    1ix3yz2           1.217610      14.227860
                         17       1    1ix3z3            1.217610       6.362892
                         17       1    1ix2y4            1.217610       5.377626
                         17       1    1ix2y3z           1.217610      14.227860
                         17       1    1ix2y2z2          1.217610      18.368088
                         17       1    1ix2yz3           1.217610      14.227860
                         17       1    1ix2z4            1.217610       5.377626
                         17       1    1ixy5             1.217610       3.104774
                         17       1    1ixy4z            1.217610       9.314321
                         17       1    1ixy3z2           1.217610      14.227860
                         17       1    1ixy2z3           1.217610      14.227860
                         17       1    1ixyz4            1.217610       9.314321
                         17       1    1ixz5             1.217610       3.104774
                         17       1    1iy6              1.217610       0.936124
                         17       1    1iy5z             1.217610       3.104774
                         17       1    1iy4z2            1.217610       5.377626
                         17       1    1iy3z3            1.217610       6.362892
                         17       1    1iy2z4            1.217610       5.377626
                         17       1    1iyz5             1.217610       3.104774
                         17       1    1iz6              1.217610       0.936124

                         18       1    1dx2              1.252180       2.439643
                         18       1    1dxy              1.252180       4.225586
                         18       1    1dxz              1.252180       4.225586
                         18       1    1dy2              1.252180       2.439643
                         18       1    1dyz              1.252180       4.225586
                         18       1    1dz2              1.252180       2.439643

                         19       1    1fx3              1.256690       2.461602
                         19       1    1fx2y             1.256690       5.504309
                         19       1    1fx2z             1.256690       5.504309
                         19       1    1fxy2             1.256690       5.504309
                         19       1    1fxyz             1.256690       9.533743
                         19       1    1fxz2             1.256690       5.504309
                         19       1    1fy3              1.256690       2.461602
                         19       1    1fy2z             1.256690       5.504309
                         19       1    1fyz2             1.256690       5.504309
                         19       1    1fz3              1.256690       2.461602

                         20       1    1gx4              1.329300       2.434438
                         20       1    1gx3y             1.329300       6.440917
                         20       1    1gx3z             1.329300       6.440917
                         20       1    1gx2y2            1.329300       8.315188
                         20       1    1gx2yz            1.329300      14.402328
                         20       1    1gx2z2            1.329300       8.315188
                         20       1    1gxy3             1.329300       6.440917
[...]
 library.
 https://doi.org/10.1016/j.parco.2014.03.012

 M. Guidon, J. Hutter, J. VandeVondele.
 J. Chem. Theory Comput. 5, 3010-3021 (2009).
 Robust Periodic Hartree-Fock Exchange for Large-Scale Simulations Using 
 Gaussian Basis Sets.
 https://doi.org/10.1021/ct900494g

 M. Guidon, F. Schiffmann, J. Hutter, J. VandeVondele.
 J. Chem. Phys. 128, 214104 (2008).
 Ab initio molecular dynamics using hybrid density functionals.
 https://doi.org/10.1063/1.2931945

 L. Genovese, T. Deutsch, S. Goedecker.
 J. Chem. Phys. 127, 054704 (2007).
 Efficient and accurate three-dimensional Poisson solver for surface problems.
 https://doi.org/10.1063/1.2754685

 J. VandeVondele, J. Hutter.
 J. Chem. Phys. 127, 114105 (2007).
 Gaussian basis sets for accurate calculations on molecular systems in gas and 
 condensed phases.
 https://doi.org/10.1063/1.2770708

 L. Genovese, T. Deutsch, A. Neelov, S. Goedecker, G. Beylkin.
 J. Chem. Phys. 125, 074105 (2006).
 Efficient solution of Poisson's equation with free boundary conditions.
 https://doi.org/10.1063/1.2335442

 M. Iannuzzi, T. Chassaing, T. Wallman, J. Hutter.
 CHIMIA 59, 499-503 (2005).
 Ground and excited state density functional calculations with the Gaussian and 
 augmented-plane-wave method.
 https://doi.org/10.2533/000942905777676164

 M. Frigo, S. G. Johnson.
 Proc. IEEE 93, 216-231 (2005).
 The design and implementation of FFTW3.
 https://doi.org/10.1109/JPROC.2004.840301

 R. L. Martin.
 J. Chem. Phys. 118, 4775-4777 (2003).
 Natural transition orbitals.
 https://doi.org/10.1063/1.1558471

 M. Krack, M. Parrinello.
 Phys. Chem. Chem. Phys. 2, 2105-2112 (2000).
 All-electron ab-initio molecular dynamics.
 https://doi.org/10.1039/b001167n

 G. Lippert, J. Hutter, M. Parrinello.
 Theor. Chem. Acc. 103, 124-140 (1999).
 The Gaussian and augmented-plane-wave density functional method for ab initio 
 molecular dynamics simulations.
 https://doi.org/10.1007/s002140050523

 J. P. Perdew, K. Burke, M. Ernzerhof.
 Phys. Rev. Lett. 77, 3865-3868 (1996).
 Generalized gradient approximation made simple.
 https://doi.org/10.1103/PhysRevLett.77.3865


 -------------------------------------------------------------------------------
 -                                                                             -
 -                                T I M I N G                                  -
 -                                                                             -
 -------------------------------------------------------------------------------
 SUBROUTINE                       CALLS  ASD         SELF TIME        TOTAL TIME
                                MAXIMUM       AVERAGE  MAXIMUM  AVERAGE  MAXIMUM
 CP2K                                 1  1.0    0.051    0.067 1509.821 1509.821
 qs_energies                          1  2.0    0.001    0.001 1507.133 1507.133
 integrate_four_center              427  9.8   18.348   28.776 1022.443 1023.640
 scf_env_do_scf                       1  3.0    0.000    0.000  912.812  912.821
 scf_env_do_scf_inner_loop           67  4.0    0.002    0.005  912.812  912.821
 qs_ks_update_qs_env                 67  5.0    0.000    0.001  881.616  881.754
 rebuild_ks_matrix                   67  6.0    0.000    0.000  881.604  881.742
 qs_ks_build_kohn_sham_matrix        67  7.0    0.010    0.012  881.603  881.742
 hfx_ks_matrix                       67  8.0    0.003    0.003  775.723  776.008
 integrate_four_center_main         427 10.8    7.635   54.908  381.827  741.084
 integrate_four_center_bin        67045 11.9  374.193  728.405  374.193  728.405
 mp_sync                           2261 11.5  458.046  607.580  458.046  607.580
 qs_energies_properties               1  3.0    0.000    0.000  590.878  590.878
 tddfpt                               1  4.0    0.000    0.000  590.878  590.878
 tddfpt_energies                      1  5.0    0.000    0.001  590.668  590.668
 tddfpt_davidson_solver               1  6.0    0.002    0.004  586.065  586.066
 tddfpt_compute_Aop_evects            9  7.0    0.000    0.000  582.290  582.291
 fhxc_kernel                          9  8.0    0.008    0.009  327.194  327.195
 tddfpt_apply_hfx                     9  8.0    0.004    0.004  253.356  253.356
 tddft_hfx_matrix                   360  9.0    0.011    0.013  246.735  247.951
 pw_poisson_solve                   247  9.5    1.432    1.540  137.734  139.176
 fft_wrap_pw1pw2                   5021 11.1    0.080    0.108  136.932  138.641
 tddfpt_apply_coulomb               180  9.0    0.003    0.005  134.523  136.009
 fft_wrap_pw1pw2_250               3533 12.2    2.435    2.625  132.685  134.505
 calc_screening_functions             1 10.0  118.818  124.003  124.588  129.773
 fft3d_ps                          5021 13.1   23.378   25.129  126.430  128.440
 mp_alltoall_z22v                  5021 15.1   97.299  107.273   97.299  107.273
 prepare_gapw_den                   248  8.7    0.007    0.009  105.651  105.825
 calculate_rho_atom                 744  9.7   11.173   88.765   11.173   88.766
 x_to_yz                           2047 13.8    2.400    2.715   81.716   84.206
 mp_sum_dv                        40378  8.8   79.078   80.798   79.078   80.798
 gaVxcgb_GC                         741  9.7    1.051   76.050    1.051   76.050
 calculate_xc_2nd_deriv_atom        180  9.0    0.137    8.032    0.931   64.306
 qs_rho_update_rho_low              249  7.9    0.003    0.003   59.135   59.151
 ps_wavelet_solve                   247 10.5   24.787   35.880   56.835   57.038
 integrate_v_rspace                 247  9.0    0.005    0.007   53.879   54.451
 calculate_rho_elec                 249  8.9    0.543    0.581   53.726   53.745
 density_rs2pw                      249  9.9    0.014    0.017   36.856   40.896
 mp_alltoall_d11v                 15864 11.6   35.378   39.581   35.378   39.581
 transfer_rs2pw                    1245 10.9    0.031    0.049   30.648   34.605
 xc_pw_derive                      1485 11.0    0.014    0.018   32.421   33.854
 mp_alltoall_d54                    247 11.5   13.465   33.714   13.465   33.714
 mp_sum_d                         14123  7.2   29.668   33.034   29.668   33.034
 mp_waitall_1                    507414 13.2   27.734   32.963   27.734   32.963
 mp_waitany                       62538 12.8   24.711   29.831   24.711   29.831
 rs_gather_matrices                 247 10.0    0.030    0.089   28.336   29.713
 tddfpt_apply_xc_analytic           180  9.0    0.125    0.169   28.770   28.904
 grid_integrate_task_list           247 10.0    1.279   28.868    1.279   28.868
 grid_collocate_task_list           249  9.9   15.087   26.955   15.087   26.955
 transfer_rs2pw_250                 498 11.8    4.461    4.964   19.026   25.099
 yz_to_x                           1982 14.5    1.798    2.238   19.610   25.068
 potential_pw2rs                    247 10.0    0.051    0.069   24.257   24.969
 xc_pw_divergence                   247 10.7    0.007    0.009   21.653   22.809
 transfer_pw2rs                    1236 10.9    0.017    0.022   22.484   22.778
 calculate_vxc_atom                  67  8.0    0.049    1.498   22.068   22.069
 mp_alltoall_d45                    248 11.5   18.396   20.904   18.396   20.904
 xc_calc_2nd_deriv_analytical      1260 10.1    0.877    1.070   16.823   16.924
 integrate_vhg0_rspace              247  9.5    2.127    2.378   14.924   15.089
 integrate_four_center_getP         427 10.8    0.453    0.480   14.685   14.776
 sum_up_and_integrate                67  8.0    0.001    0.001   14.334   14.768
 cp_dbcsr_sm_fm_multiply           1126  8.6    0.023    0.027   11.768   14.306
 integrate_four_center_dist_KS      427 10.8    0.354    0.390   14.223   14.254
 mp_isendrecv_dv                 289820 12.3    5.118   13.881    5.118   13.881
 transfer_pw2rs_250                 495 11.7    3.879    4.348   12.426   12.925
 put_rho0_on_grid                   248  9.7    0.573    0.757   12.363   12.536
 qs_vxc_create                       67  8.0    0.001    0.001   11.896   11.897
 xc_vxc_pw_create                    67  9.0    0.188    0.213   11.896   11.896
 mp_sum_dm                         6805 10.0   10.695   11.217   10.695   11.217
 powell_optimize                4134006 11.0   10.318   10.851   10.318   10.851
 dbcsr_complete_redistribute       3740 10.5    0.170    0.338    7.807   10.378
 cp_fm_syevd                        119  7.2    0.001    0.001   10.166   10.185
 cp_fm_redistribute_end             119  8.2    5.067    9.990    5.079    9.998
 qs_scf_new_mos                      67  5.0    0.001    0.001    9.846    9.891
 cp_fm_syevd_base                   119  8.2    4.908    9.837    4.908    9.837
 mp_sum_l                          5945 10.6    5.411    8.501    5.411    8.501
 copy_fm_to_dbcsr                  2521  9.6    0.013    0.014    5.765    8.342
 eigensolver_symm                    67  6.0    0.003    0.003    8.233    8.246
 integrate_four_center_load         427 10.8    0.001    0.002    5.179    8.235
 hfx_load_balance                     1 11.0    0.000    0.000    5.177    8.234
 hfx_load_balance_range               1 12.0    0.000    0.000    5.154    8.210
 transfer_rs2pw_90                  249 11.9    0.722    0.922    4.444    7.422
 calc_pair_dist_radii                 1 10.0    2.243    2.299    6.792    6.991
 Vh_1c_gg_integrals                 247  9.5    0.114    5.551    5.685    6.270
 copy_dbcsr_to_fm                  1217  9.3    0.017    0.019    5.180    5.879
 xc_rho_set_and_dset_create          68 10.0    0.158    0.216    5.507    5.871
 transfer_rs2pw_30                  249 11.9    2.357    2.463    5.460    5.566
 transfer_pw2rs_30                  247 12.0    2.268    2.403    5.218    5.552
 mp_alltoall_i22                   4958 11.4    3.220    5.492    3.220    5.492
 calculate_rho_atom_coeff           249  8.9    0.307    0.721    5.406    5.407
 gspace_mixing                       66  5.0    0.143    0.154    5.163    5.163
 dbcsr_multiply_generic            1553 10.3    0.072    0.083    4.428    5.089
 calculate_rho0_atom                744  9.7    3.956    4.524    3.956    4.524
 mp_sendrecv_dv                  107070 12.9    4.182    4.383    4.182    4.383
 cp_dbcsr_sm_fm_multiply_core      1126  9.6    0.003    0.004    3.234    3.890
 transfer_pw2rs_90                  247 12.0    0.684    0.795    3.101    3.842
 pw_scatter_p                      2541 12.8    3.259    3.796    3.259    3.796
 broyden_mixing                      66  6.0    3.583    3.717    3.697    3.776
 dbcsr_desymmetrize_deep           1218 10.3    0.035    0.051    3.021    3.716
 multiply_cannon                   1553 11.3    0.194    0.202    2.958    3.671
 tddfpt_print_nto_analysis            1  6.0    0.003    0.004    3.613    3.614
 rs_grid_zero                      1238 11.9    3.342    3.454    3.342    3.454
 pw_gather_p                       2480 13.4    2.739    3.183    2.739    3.183
 cp2k_distribution_to_z_slices      247 10.5    1.157    1.256    2.550    3.122
 multiply_cannon_loop              1553 12.3    0.362    0.382    2.287    2.962
 fft_wrap_pw1pw2_90                 496 11.9    0.075    0.117    2.621    2.958
 qs_energies_init_hamiltonians        1  3.0    0.000    0.000    2.924    2.924
 build_core_hamiltonian_matrix        1  4.0    0.000    0.000    2.911    2.911
 overlap_condnum                      1  5.0    0.000    0.001    2.871    2.908
 cp_fm_geeig                         20  7.0    0.001    0.001    2.886    2.888
 mp_alltoall_i11v                 12438 11.5    2.827    2.858    2.827    2.858
 pw_derive                         2226 11.8    2.454    2.609    2.454    2.609
 arnoldi_conjugate_gradient           5  6.0    0.052    0.063    2.604    2.604
 parallel_gemm_fm                  1661  8.3    0.002    0.003    2.156    2.179
 parallel_gemm_fm_gemm             1661  9.3    0.002    0.003    2.153    2.176
 cp_fm_gemm                        1661 10.3    2.151    2.174    2.151    2.174
 tddfpt_orthonormalize_psi1_psi      10  6.9    0.024    0.025    2.139    2.139
 cp_dbcsr_plus_fm_fm_t              247  8.5    0.004    0.004    2.005    2.093
 create_qs_kind_set                   1  2.0    0.000    0.000    2.031    2.032
 read_qs_kind                         3  3.0    1.120    1.179    2.031    2.032
 transfer_pw2rs_10                  247 12.0    0.592    0.678    1.723    1.838
 pw_copy                           3350 11.0    1.690    1.826    1.690    1.826
 multiply_cannon_metrocomm3       55908 13.3    0.091    0.096    0.682    1.811
 mp_irecv_dm3                      8934 12.8    0.696    1.770    0.696    1.770
 transfer_rs2pw_10                  249 11.9    0.608    0.648    1.686    1.760
 dbcsr_sym_matrix_vector_mult      7769  7.0    0.122    0.135    1.344    1.754
 tddfpt_apply_energy_diff             9  8.0    0.001    0.001    1.740    1.740
 hybrid_alltoall_any               4324 13.5    0.040    0.099    1.486    1.689
 update_ks_atom                     247  8.7    0.219    0.729    1.163    1.679
 xc_functional_eval                1550 10.9    0.001    0.006    0.880    1.598
 pbe_lda_eval                      1550 11.9    0.879    1.592    0.879    1.592
 pw_poisson_set                     248 10.4    0.006    0.007    1.475    1.507
 tddfpt_compute_residual_vects        8  7.0    0.001    0.001    1.484    1.485
 mp_isend_dv                     163488 13.8    0.743    1.416    0.743    1.416
 multiply_cannon_metrocomm1       55908 13.3    0.065    0.067    0.521    1.411
 pw_copy_to_array                  2480 13.4    1.128    1.374    1.128    1.374
 make_m2s                          3106 11.3    0.060    0.066    0.994    1.280
 mp_isend_dm3                      8934 12.8    0.628    1.264    0.628    1.264
 pw_integral_ab_c1d_c1d_gs          247 10.5    0.803    0.810    1.025    1.114
 make_images                       3106 12.3    0.184    0.266    0.832    1.080
 mp_alltoall_z11v                   992 14.9    1.029    1.069    1.029    1.069
 fft_wrap_pw1pw2_30                 496 11.9    0.014    0.016    1.023    1.060
 mp_bcast_dm                       4446  9.7    0.945    1.045    0.945    1.045
 pw_axpy                           2658 10.8    0.929    1.037    0.929    1.037
 pw_copy_from_array                2541 12.8    0.767    0.946    0.767    0.946
 parser_read_line                237715  4.0    0.080    0.089    0.911    0.930
 mp_max_i                           718  5.1    0.353    0.911    0.353    0.911
 pw_zero                           2748 10.6    0.789    0.908    0.789    0.908
 rs_scatter_matrices                249  9.9    0.003    0.016    0.843    0.873
 parser_read_line_low               255  5.0    0.069    0.353    0.831    0.851
 dbcsr_rep_row_to_rep_col_vec      7769  8.0    0.040    0.058    0.327    0.832
 broadcast_input_information        255  6.0    0.169    0.185    0.762    0.809
 calculate_dm_sparse                 67  6.0    0.001    0.001    0.651    0.732
 yz_to_xz                           494 14.0    0.044    0.050    0.666    0.701
 dbcsr_add_d                      11704  7.0    0.011    0.012    0.097    0.696
 dbcsr_add_anytype                11704  8.0    0.013    0.086    0.087    0.684
 tddfpt_construct_ground_state_       1  6.0    0.000    0.000    0.659    0.659
 dbcsr_finalize                   19266 11.3    0.047    0.178    0.213    0.622
 multiply_cannon_metrocomm4       52802 13.3    0.155    0.172    0.329    0.606
 pw_poisson_rebuild                 247 10.5    0.000    0.000    0.568    0.591
 ps_wavelet_create                    1 10.0    0.000    0.000    0.568    0.591
 RS_z_slice_distribution              1 11.0    0.499    0.553    0.568    0.591
 dbcsr_col_vec_to_rep_row          7769  8.0    0.055    0.077    0.342    0.560
 qs_init_subsys                       1  2.0    0.008    0.009    0.537    0.538
 multiply_cannon_multrec          55908 13.3    0.101    0.528    0.108    0.538
 fft_wrap_pw1pw2_10                 496 11.9    0.005    0.005    0.523    0.531
 offload_free_buffer                255 10.2    0.373    0.529    0.373    0.529
 xc_2nd_deriv_of_r                 1080 10.0    0.001    0.088    0.007    0.512
 init_scf_run                         1  3.0    0.000    0.000    0.444    0.444
 xz_to_yz                           498 13.9    0.029    0.034    0.437    0.443
 cp_fm_trace_a1b1t1_aa            16500  8.0    0.082    0.094    0.434    0.439
 mp_allgather_i34                  1553 12.3    0.370    0.438    0.370    0.438
 qs_env_setup                         1  3.0    0.000    0.000    0.401    0.431
 qs_env_rebuild_pw_env                2  3.5    0.000    0.000    0.400    0.429
 pw_env_rebuild                       1  5.0    0.001    0.001    0.399    0.429
 mp_irecv_dv                     163869 13.8    0.161    0.429    0.161    0.429
 mp_rank_compare                   5021 14.1    0.410    0.427    0.410    0.427
 dbcsr_sym_matrix_vector_mult_l    7769  8.0    0.057    0.372    0.081    0.395
 make_images_sizes                 3106 13.3    0.004    0.004    0.366    0.389
 multiply_cannon_metrocomm2       51249 13.3    0.153    0.167    0.284    0.387
 mp_alltoall_i44                   3106 14.3    0.363    0.386    0.363    0.386
 mp_bcast_am_src                    255  7.0    0.279    0.329    0.307    0.372
 mp_bcast_i_src                    1020  7.0    0.236    0.368    0.236    0.368
 cp_fm_symm                          67  7.0    0.338    0.353    0.338    0.353
 cp_fm_triangular_multiply           60  8.0    0.336    0.340    0.336    0.340
 mp_bcast_dv                       7888  9.0    0.155    0.340    0.155    0.340
 dbcsr_merge_all                  17333 12.3    0.091    0.244    0.122    0.335
 make_images_data                  3106 13.3    0.039    0.052    0.124    0.330
 prepare_dr1dr                     1260 11.1    0.270    0.328    0.270    0.328
 scf_env_initial_rho_setup            1  4.0    0.000    0.000    0.318    0.318
 scale_and_distribute               494 11.5    0.255    0.274    0.255    0.274
 mp_cart_sub                       2438 11.3    0.269    0.271    0.269    0.271
 dbcsr_copy                       34972  7.9    0.124    0.143    0.213    0.245
 dbcsr_iterator_start            116899  9.5    0.134    0.195    0.160    0.245
 dbcsr_create_new                 63210 10.4    0.176    0.187    0.228    0.245
 compute_max_radius                   1  6.0    0.227    0.242    0.227    0.242
 cp_fm_cholesky_decompose            21  8.0    0.238    0.238    0.238    0.238
 mp_cart_create                    1963 10.7    0.197    0.216    0.199    0.218
 cp_fm_redistribute_start           119  8.2    0.137    0.146    0.178    0.199
 cp_fm_triangular_invert             20  8.0    0.186    0.187    0.186    0.187
 pw_grid_setup                        4  6.0    0.000    0.000    0.151    0.181
 pw_grid_setup_internal               4  7.0    0.003    0.004    0.151    0.181
 dbcsr_iterator_stop             116899  9.5    0.100    0.139    0.122    0.165
 tddfpt_compute_ritz_vects            9  7.0    0.007    0.008    0.162    0.163
 -------------------------------------------------------------------------------

 The number of warnings for this run is : 2
 
 -------------------------------------------------------------------------------
  **** **** ******  **  PROGRAM ENDED AT                 2025-04-02 11:14:26.637
 ***** ** ***  *** **   PROGRAM RAN ON                              i04r01c04s01
 **    ****   ******    PROGRAM RAN BY                                   di38fab
 ***** **    ** ** **   PROGRAM PROCESS ID                               1321938
  **** **  *******  **  PROGRAM STOPPED IN /hppfs/scratch/04/di38fab/07_MOL_non_
                                           aug/05_MOL_non_aug/05_MOL/aUKBqsEOTmq
                                           69kFe5R_nOg/5k_set_final_qzvp/VABHUB/
                                           cc-pV5Z/TDDFT
