 DBCSR| CPU Multiplication driver                                           BLAS (U)
 DBCSR| Multrec recursion limit                                              512 (U)
 DBCSR| Multiplication stack size                                           1000 (D)
 DBCSR| Maximum elements for images                                    UNLIMITED (U)
 DBCSR| Multiplicative factor virtual images                                   1 (U)
 DBCSR| Use multiplication densification                                       T (D)
 DBCSR| Multiplication size stacks                                             3 (U)
 DBCSR| Use memory pool for CPU allocation                                     F (U)
 DBCSR| Number of 3D layers                                               SINGLE (U)
 DBCSR| Use MPI memory allocation                                              F (U)
 DBCSR| Use RMA algorithm                                                      F (U)
 DBCSR| Use Communication thread                                               T (U)
 DBCSR| Communication thread load                                             45 (D)
 DBCSR| MPI: My process id                                                     0
 DBCSR| MPI: Number of processes                                             512
 DBCSR| OMP: Current number of threads                                        12
 DBCSR| OMP: Max number of threads                                            12
 DBCSR| Split modifier for TAS multiplication algorithm                  1.0E+00 (U)


  **** **** ******  **  PROGRAM STARTED AT               2025-04-22 03:45:25.259
 ***** ** ***  *** **   PROGRAM STARTED ON                          i06r04c06s07
 **    ****   ******    PROGRAM STARTED BY                               di38fab
 ***** **    ** ** **   PROGRAM PROCESS ID                               3666485
  **** **  *******  **  PROGRAM STARTED IN /hppfs/scratch/04/di38fab/07_MOL_non_
                                           aug/05_MOL_non_aug/05_MOL/aUKBqsEOTmq
                                           69kFe5R_nOg/5k_set_final_qzvp/PRHDNA0
                                           1/cc-pV5Z/TDDFT

 CP2K| version string:                 CP2K version 2025.1 (Development Version)
 CP2K| source code revision number:                             unknown revision
 CP2K| cp2kflags: omp libint fftw3 libxc parallel scalapack max_contr=4         
 CP2K| is freely available from                            https://www.cp2k.org/
 CP2K| Program compiled at                         Thu Apr 10 16:20:23 CEST 2025
 CP2K| Program compiled on                                               login01
 CP2K| Program compiled for                                        Supermuc-foss
 CP2K| Data directory path                  /hppfs/work/pn36zo/di38fab/cp2k/data
 CP2K| Input file name                                                    GW.inp

 GLOBAL| Force Environment number                                              1
 GLOBAL| Basis set file name            /hppfs/scratch/04/di38fab/04_TMD/BASIS_A
 GLOBAL| Potential file name            /hppfs/work/pn36zo/di38fab/cp2k/data/ALL
 GLOBAL| MM Potential file name                                     MM_POTENTIAL
 GLOBAL| Coordinate file name                                      __STD_INPUT__
 GLOBAL| Method name                                                        CP2K
 GLOBAL| Project name                                                       MoS2
 GLOBAL| Run type                                                         ENERGY
 GLOBAL| FFT library                                                       FFTW3
 GLOBAL| Diagonalization library                                       ScaLAPACK
 GLOBAL| DGEMM library                                                      BLAS
 GLOBAL| Orthonormality check for eigenvectors                          DISABLED
 GLOBAL| Matrix multiplication library                                 ScaLAPACK
 GLOBAL| All-to-all communication in single precision                          F
 GLOBAL| FFTs using library dependent lengths                                  F
 GLOBAL| Grid backend                                                       AUTO
 GLOBAL| Global print level                                               MEDIUM
 GLOBAL| MPI I/O enabled                                                       T
 GLOBAL| Total number of message passing processes                           512
 GLOBAL| Number of threads for this process                                   12
 GLOBAL| This output is from process                                           0
 GLOBAL| OpenMP stack size per thread (OMP_STACKSIZE)                    default
 GLOBAL| CPU model name             Intel(R) Xeon(R) Platinum 8174 CPU @ 3.10GHz

 MEMORY| system memory details [Kb]
 MEMORY|                        rank 0           min           max       average
 MEMORY| MemTotal             98436664      98429512      98436944      98436504
 MEMORY| MemFree              85141356      84374888      86123280      84962414
 MEMORY| Buffers                     0             0             0             0
 MEMORY| Cached                2365624       2316512       2390720       2362269
 MEMORY| Slab                  1217508        995640       1252512       1208277
 MEMORY| SReclaimable           271964        217200        285216        271150
 MEMORY| MemLikelyFree        87778944      87018812      88656992      87595834


 *** Fundamental physical constants (SI units) ***

 *** Literature: B. J. Mohr and B. N. Taylor,
 ***             CODATA recommended values of the fundamental physical
 ***             constants: 2006, Web Version 5.1
 ***             http://physics.nist.gov/constants

 Speed of light in vacuum [m/s]                             2.99792458000000E+08
 Magnetic constant or permeability of vacuum [N/A**2]       1.25663706143592E-06
 Electric constant or permittivity of vacuum [F/m]          8.85418781762039E-12
 Planck constant (h) [J*s]                                  6.62606896000000E-34
 Planck constant (h-bar) [J*s]                              1.05457162825177E-34
 Elementary charge [C]                                      1.60217648700000E-19
 Electron mass [kg]                                         9.10938215000000E-31
 Electron g factor [ ]                                     -2.00231930436220E+00
 Proton mass [kg]                                           1.67262163700000E-27
 Fine-structure constant                                    7.29735253760000E-03
 Rydberg constant [1/m]                                     1.09737315685270E+07
 Avogadro constant [1/mol]                                  6.02214179000000E+23
 Boltzmann constant [J/K]                                   1.38065040000000E-23
 Atomic mass unit [kg]                                      1.66053878200000E-27
 Bohr radius [m]                                            5.29177208590000E-11

 *** Conversion factors ***

 [u] -> [a.u.]                                              1.82288848426455E+03
 [Angstrom] -> [Bohr] = [a.u.]                              1.88972613288564E+00
 [a.u.] = [Bohr] -> [Angstrom]                              5.29177208590000E-01
 [a.u.] -> [s]                                              2.41888432650478E-17
 [a.u.] -> [fs]                                             2.41888432650478E-02
 [a.u.] -> [J]                                              4.35974393937059E-18
 [a.u.] -> [N]                                              8.23872205491840E-08
 [a.u.] -> [K]                                              3.15774647902944E+05
 [a.u.] -> [kJ/mol]                                         2.62549961709828E+03
 [a.u.] -> [kcal/mol]                                       6.27509468713739E+02
 [a.u.] -> [Pa]                                             2.94210107994716E+13
 [a.u.] -> [bar]                                            2.94210107994716E+08
 [a.u.] -> [atm]                                            2.90362800883016E+08
 [a.u.] -> [eV]                                             2.72113838565563E+01
 [a.u.] -> [Hz]                                             6.57968392072181E+15
 [a.u.] -> [1/cm] (wave numbers)                            2.19474631370540E+05
 [a.u./Bohr**2] -> [1/cm]                                   5.14048714338585E+03
 

 CELL_TOP| Volume [angstrom^3]:                                     27000.000000
 CELL_TOP| Vector a [angstrom    30.000     0.000     0.000   |a| =    30.000000
 CELL_TOP| Vector b [angstrom     0.000    30.000     0.000   |b| =    30.000000
 CELL_TOP| Vector c [angstrom     0.000     0.000    30.000   |c| =    30.000000
 CELL_TOP| Angle (b,c), alpha [degree]:                                90.000000
 CELL_TOP| Angle (a,c), beta  [degree]:                                90.000000
 CELL_TOP| Angle (a,b), gamma [degree]:                                90.000000
 CELL_TOP| Numerically orthorhombic:                                         YES
 CELL_TOP| Periodicity                                                      NONE

 GENERATE|  Preliminary Number of Bonds generated:                             0
 GENERATE|  Achieved consistency in connectivity generation.

 CELL| Volume [angstrom^3]:                                         27000.000000
 CELL| Vector a [angstrom]:      30.000     0.000     0.000   |a| =    30.000000
 CELL| Vector b [angstrom]:       0.000    30.000     0.000   |b| =    30.000000
 CELL| Vector c [angstrom]:       0.000     0.000    30.000   |c| =    30.000000
 CELL| Angle (b,c), alpha [degree]:                                    90.000000
 CELL| Angle (a,c), beta  [degree]:                                    90.000000
 CELL| Angle (a,b), gamma [degree]:                                    90.000000
 CELL| Numerically orthorhombic:                                             YES
 CELL| Periodicity                                                          NONE

 CELL_REF| Volume [angstrom^3]:                                     27000.000000
 CELL_REF| Vector a [angstrom    30.000     0.000     0.000   |a| =    30.000000
 CELL_REF| Vector b [angstrom     0.000    30.000     0.000   |b| =    30.000000
 CELL_REF| Vector c [angstrom     0.000     0.000    30.000   |c| =    30.000000
 CELL_REF| Angle (b,c), alpha [degree]:                                90.000000
 CELL_REF| Angle (a,c), beta  [degree]:                                90.000000
 CELL_REF| Angle (a,b), gamma [degree]:                                90.000000
 CELL_REF| Numerically orthorhombic:                                         YES
 CELL_REF| Periodicity                                                      NONE

 *******************************************************************************
 *******************************************************************************
 **                                                                           **
 **     #####                         ##              ##                      **
 **    ##   ##            ##          ##              ##                      **
 **   ##     ##                       ##            ######                    **
 **   ##     ##  ##   ##  ##   #####  ##  ##   ####   ##    #####    #####    **
 **   ##     ##  ##   ##  ##  ##      ## ##   ##      ##   ##   ##  ##   ##   **
 **   ##  ## ##  ##   ##  ##  ##      ####     ###    ##   ######   ######    **
 **    ##  ###   ##   ##  ##  ##      ## ##      ##   ##   ##       ##        **
 **     #######   #####   ##   #####  ##  ##  ####    ##    #####   ##        **
 **           ##                                                    ##        **
 **                                                                           **
 **                                                ... make the atoms dance   **
 **                                                                           **
 **            Copyright (C) by CP2K developers group (2000-2025)             **
 **                      J. Chem. Phys. 152, 194103 (2020)                    **
 **                                                                           **
 *******************************************************************************

 DFT| Spin restricted Kohn-Sham (RKS) calculation                            RKS
 DFT| Multiplicity                                                             1
 DFT| Number of spin states                                                    1
 DFT| Charge                                                                   0
 DFT| Self-interaction correction (SIC)                                       NO
 DFT| Cutoffs: density                                              1.000000E-10
 DFT|          gradient                                             1.000000E-10
 DFT|          tau                                                  1.000000E-10
 DFT|          cutoff_smoothing_range                               0.000000E+00
 DFT| XC density smoothing                                                  NONE
 DFT| XC derivatives                                                          PW

 FUNCTIONAL| PBE:
 FUNCTIONAL| J.P.Perdew, K.Burke, M.Ernzerhof, Phys. Rev. Letter, vol. 77, n 18,
 FUNCTIONAL|  pp. 3865-3868, (1996)sx=0.750sc=1.000{spin unpolarized}           


 QS| Method:                                                                GAPW
 QS| Density plane wave grid type                        NON-SPHERICAL FULLSPACE
 QS| Number of grid levels:                                                    4
 QS| Density cutoff [a.u.]:                                                250.0
 QS| Multi grid cutoff [a.u.]: 1) grid level                               250.0
 QS|                           2) grid level                                83.3
 QS|                           3) grid level                                27.8
 QS|                           4) grid level                                 9.3
 QS| Grid level progression factor:                                          3.0
 QS| Relative density cutoff [a.u.]:                                        50.0
 QS| Interaction thresholds: eps_pgf_orb:                                1.0E-12
 QS|                         eps_filter_matrix:                          0.0E+00
 QS|                         eps_core_charge:                            1.0E-14
 QS|                         eps_rho_gspace:                             1.0E-12
 QS|                         eps_rho_rspace:                             1.0E-12
 QS|                         eps_gvg_rspace:                             1.0E-06
 QS|                         eps_ppl:                                    1.0E-02
 QS|                         eps_ppnl:                                   1.0E-08
 QS| GAPW|      One center basis from orbital basis primitives
 QS| GAPW|                   eps_fit:                                    1.0E-04
 QS| GAPW|                   eps_iso:                                    1.0E-12
 QS| GAPW|                   eps_svd:                                    1.0E-08
 QS| GAPW|                   eps_cpc:                                    1.0E-12
 QS| GAPW|   atom-r-grid: quadrature:                                     GC_LOG
 QS| GAPW|      atom-s-grid:  max l :                                         10
 QS| GAPW|      max_l_rho0 :                                                   2


 ATOMIC KIND INFORMATION

  1. Atomic kind: N                                     Number of atoms:       2

     Orbital Basis Set                                                   cc-pV5Z

       Number of orbital shell sets:                                           6
       Number of orbital shells:                                              21
       Number of primitive Cartesian functions:                               32
       Number of Cartesian basis functions:                                  126
       Number of spherical basis functions:                                   91
       Norm type:                                                              2

       Normalised Cartesian orbitals:

                        Set   Shell   Orbital            Exponent    Coefficient

                          1       1    1px             147.000000       0.000000
                                                        34.760000       0.000000
                                                        11.000000       0.000000
                                                         3.995000       0.000000
                                                         1.587000       2.538991
                                                         0.653300       0.000000
                                                         0.268600       0.000000
                                                         0.106700       0.000000
                          1       1    1py             147.000000       0.000000
                                                        34.760000       0.000000
                                                        11.000000       0.000000
                                                         3.995000       0.000000
                                                         1.587000       2.538991
                                                         0.653300       0.000000
                                                         0.268600       0.000000
                                                         0.106700       0.000000
                          1       1    1pz             147.000000       0.000000
                                                        34.760000       0.000000
                                                        11.000000       0.000000
                                                         3.995000       0.000000
                                                         1.587000       2.538991
                                                         0.653300       0.000000
                                                         0.268600       0.000000
                                                         0.106700       0.000000

                          1       2    2px             147.000000       0.000000
                                                        34.760000       0.000000
                                                        11.000000       0.000000
                                                         3.995000       0.000000
                                                         1.587000       0.000000
                                                         0.653300       0.837203
                                                         0.268600       0.000000
                                                         0.106700       0.000000
                          1       2    2py             147.000000       0.000000
                                                        34.760000       0.000000
                                                        11.000000       0.000000
                                                         3.995000       0.000000
                                                         1.587000       0.000000
                                                         0.653300       0.837203
                                                         0.268600       0.000000
                                                         0.106700       0.000000
                          1       2    2pz             147.000000       0.000000
                                                        34.760000       0.000000
                                                        11.000000       0.000000
                                                         3.995000       0.000000
                                                         1.587000       0.000000
                                                         0.653300       0.837203
                                                         0.268600       0.000000
                                                         0.106700       0.000000

                          1       3    3px             147.000000       0.650807
                                                        34.760000       0.852013
                                                        11.000000       0.937059
                                                         3.995000       0.871164
                                                         1.587000       0.629909
                                                         0.653300       0.313544
                                                         0.268600       0.096033
                                                         0.106700       0.011156
                          1       3    3py             147.000000       0.650807
                                                        34.760000       0.852013
                                                        11.000000       0.937059
                                                         3.995000       0.871164
                                                         1.587000       0.629909
                                                         0.653300       0.313544
                                                         0.268600       0.096033
                                                         0.106700       0.011156
                          1       3    3pz             147.000000       0.650807
                                                        34.760000       0.852013
                                                        11.000000       0.937059
                                                         3.995000       0.871164
                                                         1.587000       0.629909
                                                         0.653300       0.313544
                                                         0.268600       0.096033
                                                         0.106700       0.011156

                          1       4    4px             147.000000       0.000000
                                                        34.760000       0.000000
                                                        11.000000       0.000000
                                                         3.995000       0.000000
                                                         1.587000       0.000000
                                                         0.653300       0.000000
                                                         0.268600       0.275628
                                                         0.106700       0.000000
                          1       4    4py             147.000000       0.000000
                                                        34.760000       0.000000
                                                        11.000000       0.000000
                                                         3.995000       0.000000
                                                         1.587000       0.000000
                                                         0.653300       0.000000
                                                         0.268600       0.275628
                                                         0.106700       0.000000
                          1       4    4pz             147.000000       0.000000
                                                        34.760000       0.000000
                                                        11.000000       0.000000
                                                         3.995000       0.000000
                                                         1.587000       0.000000
                                                         0.653300       0.000000
                                                         0.268600       0.275628
                                                         0.106700       0.000000

                          1       5    5px             147.000000       0.000000
                                                        34.760000       0.000000
                                                        11.000000       0.000000
                                                         3.995000       0.000000
                                                         1.587000       0.000000
                                                         0.653300       0.000000
                                                         0.268600       0.000000
                                                         0.106700       0.086925
                          1       5    5py             147.000000       0.000000
                                                        34.760000       0.000000
                                                        11.000000       0.000000
                                                         3.995000       0.000000
                                                         1.587000       0.000000
                                                         0.653300       0.000000
                                                         0.268600       0.000000
                                                         0.106700       0.086925
                          1       5    5pz             147.000000       0.000000
                                                        34.760000       0.000000
                                                        11.000000       0.000000
                                                         3.995000       0.000000
                                                         1.587000       0.000000
                                                         0.653300       0.000000
                                                         0.268600       0.000000
                                                         0.106700       0.086925

                          2       1    1s           129200.000000       0.121422
                                                     19350.000000       0.230350
                                                      4404.000000       0.397627
                                                      1248.000000       0.647228
                                                       408.000000       0.995089
                                                       148.200000       1.418775
                                                        58.500000       1.810832
                                                        24.590000       1.933640
                                                        10.810000       1.535474
                                                         4.882000       0.672463
                                                         2.195000       0.090187
                                                         0.871500       0.001177
                                                         0.350400       0.000271
                                                         0.139700      -0.000001

                          2       2    2s           129200.000000       0.000000
                                                     19350.000000       0.000000
                                                      4404.000000       0.000000
                                                      1248.000000       0.000000
                                                       408.000000       0.000000
                                                       148.200000       0.000000
                                                        58.500000       0.000000
                                                        24.590000       0.000000
                                                        10.810000       0.000000
                                                         4.882000       0.000000
                                                         2.195000       1.285245
                                                         0.871500       0.000000
                                                         0.350400       0.000000
                                                         0.139700       0.000000

                          2       3    3s           129200.000000       0.000000
                                                     19350.000000       0.000000
                                                      4404.000000       0.000000
                                                      1248.000000       0.000000
                                                       408.000000       0.000000
                                                       148.200000       0.000000
                                                        58.500000       0.000000
                                                        24.590000       0.000000
                                                        10.810000       0.000000
                                                         4.882000       0.000000
                                                         2.195000       0.000000
                                                         0.871500       0.642851
                                                         0.350400       0.000000
                                                         0.139700       0.000000

                          2       4    4s           129200.000000       0.000000
                                                     19350.000000       0.000000
                                                      4404.000000       0.000000
                                                      1248.000000       0.000000
                                                       408.000000       0.000000
                                                       148.200000       0.000000
                                                        58.500000       0.000000
                                                        24.590000       0.000000
                                                        10.810000       0.000000
                                                         4.882000       0.000000
                                                         2.195000       0.000000
                                                         0.871500       0.000000
                                                         0.350400       0.324589
                                                         0.139700       0.000000

                          2       5    5s           129200.000000      -0.029141
                                                     19350.000000      -0.050279
                                                      4404.000000      -0.087462
                                                      1248.000000      -0.143363
                                                       408.000000      -0.221016
                                                       148.200000      -0.322915
                                                        58.500000      -0.426325
                                                        24.590000      -0.503842
                                                        10.810000      -0.484089
                                                         4.882000      -0.344081
                                                         2.195000      -0.009319
                                                         0.871500       0.235401
                                                         0.350400       0.177845
                                                         0.139700       0.035282

                          2       6    6s           129200.000000       0.000000
                                                     19350.000000       0.000000
                                                      4404.000000       0.000000
                                                      1248.000000       0.000000
                                                       408.000000       0.000000
                                                       148.200000       0.000000
                                                        58.500000       0.000000
                                                        24.590000       0.000000
                                                        10.810000       0.000000
                                                         4.882000       0.000000
                                                         2.195000       0.000000
                                                         0.871500       0.000000
                                                         0.350400       0.000000
                                                         0.139700       0.162857

                          3       1    1dx2              4.647000      24.208152
                                                         1.813000       0.000000
                                                         0.707000       0.000000
                                                         0.276000       0.000000
                          3       1    1dxy              4.647000      41.929749
                                                         1.813000       0.000000
                                                         0.707000       0.000000
                                                         0.276000       0.000000
                          3       1    1dxz              4.647000      41.929749
                                                         1.813000       0.000000
                                                         0.707000       0.000000
                                                         0.276000       0.000000
                          3       1    1dy2              4.647000      24.208152
                                                         1.813000       0.000000
                                                         0.707000       0.000000
                                                         0.276000       0.000000
                          3       1    1dyz              4.647000      41.929749
                                                         1.813000       0.000000
                                                         0.707000       0.000000
                                                         0.276000       0.000000
                          3       1    1dz2              4.647000      24.208152
                                                         1.813000       0.000000
                                                         0.707000       0.000000
                                                         0.276000       0.000000

                          3       2    2dx2              4.647000       0.000000
                                                         1.813000       4.662358
                                                         0.707000       0.000000
                                                         0.276000       0.000000
                          3       2    2dxy              4.647000       0.000000
                                                         1.813000       8.075441
                                                         0.707000       0.000000
                                                         0.276000       0.000000
                          3       2    2dxz              4.647000       0.000000
                                                         1.813000       8.075441
                                                         0.707000       0.000000
                                                         0.276000       0.000000
                          3       2    2dy2              4.647000       0.000000
                                                         1.813000       4.662358
                                                         0.707000       0.000000
                                                         0.276000       0.000000
                          3       2    2dyz              4.647000       0.000000
                                                         1.813000       8.075441
                                                         0.707000       0.000000
                                                         0.276000       0.000000
                          3       2    2dz2              4.647000       0.000000
                                                         1.813000       4.662358
                                                         0.707000       0.000000
                                                         0.276000       0.000000

                          3       3    3dx2              4.647000       0.000000
                                                         1.813000       0.000000
                                                         0.707000       0.897209
                                                         0.276000       0.000000
                          3       3    3dxy              4.647000       0.000000
                                                         1.813000       0.000000
                                                         0.707000       1.554011
                                                         0.276000       0.000000
                          3       3    3dxz              4.647000       0.000000
                                                         1.813000       0.000000
                                                         0.707000       1.554011
                                                         0.276000       0.000000
                          3       3    3dy2              4.647000       0.000000
                                                         1.813000       0.000000
                                                         0.707000       0.897209
                                                         0.276000       0.000000
                          3       3    3dyz              4.647000       0.000000
                                                         1.813000       0.000000
                                                         0.707000       1.554011
                                                         0.276000       0.000000
                          3       3    3dz2              4.647000       0.000000
                                                         1.813000       0.000000
                                                         0.707000       0.897209
                                                         0.276000       0.000000

                          3       4    4dx2              4.647000       0.000000
                                                         1.813000       0.000000
                                                         0.707000       0.000000
                                                         0.276000       0.172982
                          3       4    4dxy              4.647000       0.000000
                                                         1.813000       0.000000
                                                         0.707000       0.000000
                                                         0.276000       0.299613
                          3       4    4dxz              4.647000       0.000000
                                                         1.813000       0.000000
                                                         0.707000       0.000000
                                                         0.276000       0.299613
                          3       4    4dy2              4.647000       0.000000
                                                         1.813000       0.000000
                                                         0.707000       0.000000
                                                         0.276000       0.172982
                          3       4    4dyz              4.647000       0.000000
                                                         1.813000       0.000000
                                                         0.707000       0.000000
                                                         0.276000       0.299613
                          3       4    4dz2              4.647000       0.000000
                                                         1.813000       0.000000
                                                         0.707000       0.000000
                                                         0.276000       0.172982

                          4       1    1fx3              2.942000      16.687853
                                                         1.204000       0.000000
                                                         0.493000       0.000000
                          4       1    1fx2y             2.942000      37.315173
                                                         1.204000       0.000000
                                                         0.493000       0.000000
                          4       1    1fx2z             2.942000      37.315173
                                                         1.204000       0.000000
                                                         0.493000       0.000000
                          4       1    1fxy2             2.942000      37.315173
                                                         1.204000       0.000000
                                                         0.493000       0.000000
                          4       1    1fxyz             2.942000      64.631775
                                                         1.204000       0.000000
                                                         0.493000       0.000000
                          4       1    1fxz2             2.942000      37.315173
                                                         1.204000       0.000000
                                                         0.493000       0.000000
                          4       1    1fy3              2.942000      16.687853
                                                         1.204000       0.000000
                                                         0.493000       0.000000
                          4       1    1fy2z             2.942000      37.315173
                                                         1.204000       0.000000
                                                         0.493000       0.000000
                          4       1    1fyz2             2.942000      37.315173
                                                         1.204000       0.000000
                                                         0.493000       0.000000
                          4       1    1fz3              2.942000      16.687853
                                                         1.204000       0.000000
                                                         0.493000       0.000000

                          4       2    2fx3              2.942000       0.000000
                                                         1.204000       2.235445
                                                         0.493000       0.000000
                          4       2    2fx2y             2.942000       0.000000
                                                         1.204000       4.998608
                                                         0.493000       0.000000
                          4       2    2fx2z             2.942000       0.000000
                                                         1.204000       4.998608
                                                         0.493000       0.000000
                          4       2    2fxy2             2.942000       0.000000
                                                         1.204000       4.998608
                                                         0.493000       0.000000
                          4       2    2fxyz             2.942000       0.000000
                                                         1.204000       8.657842
                                                         0.493000       0.000000
                          4       2    2fxz2             2.942000       0.000000
                                                         1.204000       4.998608
                                                         0.493000       0.000000
                          4       2    2fy3              2.942000       0.000000
                                                         1.204000       2.235445
                                                         0.493000       0.000000
                          4       2    2fy2z             2.942000       0.000000
                                                         1.204000       4.998608
                                                         0.493000       0.000000
                          4       2    2fyz2             2.942000       0.000000
                                                         1.204000       4.998608
                                                         0.493000       0.000000
                          4       2    2fz3              2.942000       0.000000
                                                         1.204000       2.235445
                                                         0.493000       0.000000

                          4       3    3fx3              2.942000       0.000000
                                                         1.204000       0.000000
                                                         0.493000       0.299820
                          4       3    3fx2y             2.942000       0.000000
                                                         1.204000       0.000000
                                                         0.493000       0.670417
                          4       3    3fx2z             2.942000       0.000000
                                                         1.204000       0.000000
                                                         0.493000       0.670417
                          4       3    3fxy2             2.942000       0.000000
                                                         1.204000       0.000000
                                                         0.493000       0.670417
                          4       3    3fxyz             2.942000       0.000000
                                                         1.204000       0.000000
                                                         0.493000       1.161196
                          4       3    3fxz2             2.942000       0.000000
                                                         1.204000       0.000000
                                                         0.493000       0.670417
                          4       3    3fy3              2.942000       0.000000
                                                         1.204000       0.000000
                                                         0.493000       0.299820
                          4       3    3fy2z             2.942000       0.000000
                                                         1.204000       0.000000
                                                         0.493000       0.670417
                          4       3    3fyz2             2.942000       0.000000
                                                         1.204000       0.000000
                                                         0.493000       0.670417
                          4       3    3fz3              2.942000       0.000000
                                                         1.204000       0.000000
                                                         0.493000       0.299820

                          5       1    1gx4              2.511000      13.996321
                                                         0.942000       0.000000
                          5       1    1gx3y             2.511000      37.030784
                                                         0.942000       0.000000
                          5       1    1gx3z             2.511000      37.030784
                                                         0.942000       0.000000
                          5       1    1gx2y2            2.511000      47.806536
                                                         0.942000       0.000000
                          5       1    1gx2yz            2.511000      82.803350
                                                         0.942000       0.000000
                          5       1    1gx2z2            2.511000      47.806536
                                                         0.942000       0.000000
                          5       1    1gxy3             2.511000      37.030784
                                                         0.942000       0.000000
                          5       1    1gxy2z            2.511000      82.803350
                                                         0.942000       0.000000
                          5       1    1gxyz2            2.511000      82.803350
                                                         0.942000       0.000000
                          5       1    1gxz3             2.511000      37.030784
                                                         0.942000       0.000000
                          5       1    1gy4              2.511000      13.996321
                                                         0.942000       0.000000
                          5       1    1gy3z             2.511000      37.030784
                                                         0.942000       0.000000
                          5       1    1gy2z2            2.511000      47.806536
                                                         0.942000       0.000000
                          5       1    1gyz3             2.511000      37.030784
                                                         0.942000       0.000000
                          5       1    1gz4              2.511000      13.996321
                                                         0.942000       0.000000

                          5       2    2gx4              2.511000       0.000000
                                                         0.942000       0.944225
                          5       2    2gx3y             2.511000       0.000000
                                                         0.942000       2.498184
                          5       2    2gx3z             2.511000       0.000000
                                                         0.942000       2.498184
                          5       2    2gx2y2            2.511000       0.000000
                                                         0.942000       3.225142
                          5       2    2gx2yz            2.511000       0.000000
                                                         0.942000       5.586109
                          5       2    2gx2z2            2.511000       0.000000
                                                         0.942000       3.225142
                          5       2    2gxy3             2.511000       0.000000
                                                         0.942000       2.498184
                          5       2    2gxy2z            2.511000       0.000000
                                                         0.942000       5.586109
                          5       2    2gxyz2            2.511000       0.000000
                                                         0.942000       5.586109
                          5       2    2gxz3             2.511000       0.000000
                                                         0.942000       2.498184
                          5       2    2gy4              2.511000       0.000000
                                                         0.942000       0.944225
                          5       2    2gy3z             2.511000       0.000000
                                                         0.942000       2.498184
                          5       2    2gy2z2            2.511000       0.000000
                                                         0.942000       3.225142
                          5       2    2gyz3             2.511000       0.000000
                                                         0.942000       2.498184
                          5       2    2gz4              2.511000       0.000000
                                                         0.942000       0.944225

                          6       1    1hx5              1.768000       4.727826
                          6       1    1hx4y             1.768000      14.183479
                          6       1    1hx4z             1.768000      14.183479
                          6       1    1hx3y2            1.768000      21.665622
                          6       1    1hx3yz            1.768000      37.525958
                          6       1    1hx3z2            1.768000      21.665622
                          6       1    1hx2y3            1.768000      21.665622
                          6       1    1hx2y2z           1.768000      48.445803
                          6       1    1hx2yz2           1.768000      48.445803
                          6       1    1hx2z3            1.768000      21.665622
                          6       1    1hxy4             1.768000      14.183479
                          6       1    1hxy3z            1.768000      37.525958
                          6       1    1hxy2z2           1.768000      48.445803
                          6       1    1hxyz3            1.768000      37.525958
                          6       1    1hxz4             1.768000      14.183479
                          6       1    1hy5              1.768000       4.727826
                          6       1    1hy4z             1.768000      14.183479
                          6       1    1hy3z2            1.768000      21.665622
                          6       1    1hy2z3            1.768000      21.665622
                          6       1    1hyz4             1.768000      14.183479
                          6       1    1hz5              1.768000       4.727826

     RI Auxiliary Basis Set                                        cc-pV5Z-RIFIT

       Number of orbital shell sets:                                          39
       Number of orbital shells:                                              39
       Number of primitive Cartesian functions:                               39
       Number of Cartesian basis functions:                                  287
       Number of spherical basis functions:                                  193
       Norm type:                                                              2

       Normalised Cartesian orbitals:

                        Set   Shell   Orbital            Exponent    Coefficient

                          1       1    1s                0.175888       0.193570

                          2       1    1dx2              0.281938       0.179547
                          2       1    1dxy              0.281938       0.310985
                          2       1    1dxz              0.281938       0.310985
                          2       1    1dy2              0.281938       0.179547
                          2       1    1dyz              0.281938       0.310985
                          2       1    1dz2              0.281938       0.179547

                          3       1    1px               0.311991       0.332367
                          3       1    1py               0.311991       0.332367
                          3       1    1pz               0.311991       0.332367

                          4       1    1s                0.378879       0.344180

                          5       1    1fx3              0.470440       0.269829
                          5       1    1fx2y             0.470440       0.603356
                          5       1    1fx2z             0.470440       0.603356
                          5       1    1fxy2             0.470440       0.603356
                          5       1    1fxyz             0.470440       1.045044
                          5       1    1fxz2             0.470440       0.603356
                          5       1    1fy3              0.470440       0.269829
                          5       1    1fy2z             0.470440       0.603356
                          5       1    1fyz2             0.470440       0.603356
                          5       1    1fz3              0.470440       0.269829

                          6       1    1px               0.519429       0.628562
                          6       1    1py               0.519429       0.628562
                          6       1    1pz               0.519429       0.628562

                          7       1    1dx2              0.568580       0.612766
                          7       1    1dxy              0.568580       1.061342
                          7       1    1dxz              0.568580       1.061342
                          7       1    1dy2              0.568580       0.612766
                          7       1    1dyz              0.568580       1.061342
                          7       1    1dz2              0.568580       0.612766

                          8       1    1s                0.758637       0.579343

                          9       1    1gx4              0.844875       0.700027
                          9       1    1gx3y             0.844875       1.852097
                          9       1    1gx3z             0.844875       1.852097
                          9       1    1gx2y2            0.844875       2.391047
                          9       1    1gx2yz            0.844875       4.141415
                          9       1    1gx2z2            0.844875       2.391047
                          9       1    1gxy3             0.844875       1.852097
                          9       1    1gxy2z            0.844875       4.141415
                          9       1    1gxyz2            0.844875       4.141415
                          9       1    1gxz3             0.844875       1.852097
                          9       1    1gy4              0.844875       0.700027
                          9       1    1gy3z             0.844875       1.852097
                          9       1    1gy2z2            0.844875       2.391047
                          9       1    1gyz3             0.844875       1.852097
                          9       1    1gz4              0.844875       0.700027

                         10       1    1fx3              0.895075       1.147197
                         10       1    1fx2y             0.895075       2.565211
                         10       1    1fx2z             0.895075       2.565211
                         10       1    1fxy2             0.895075       2.565211
                         10       1    1fxyz             0.895075       4.443076
                         10       1    1fxz2             0.895075       2.565211
                         10       1    1fy3              0.895075       1.147197
                         10       1    1fy2z             0.895075       2.565211
                         10       1    1fyz2             0.895075       2.565211
                         10       1    1fz3              0.895075       1.147197

                         11       1    1px               0.990652       1.408775
                         11       1    1py               0.990652       1.408775
                         11       1    1pz               0.990652       1.408775

                         12       1    1dx2              1.105370       1.961317
                         12       1    1dxy              1.105370       3.397101
                         12       1    1dxz              1.105370       3.397101
                         12       1    1dy2              1.105370       1.961317
                         12       1    1dyz              1.105370       3.397101
                         12       1    1dz2              1.105370       1.961317

                         13       1    1s                1.312410       0.873901

                         14       1    1hx5              1.319300       1.825832
                         14       1    1hx4y             1.319300       5.477495
                         14       1    1hx4z             1.319300       5.477495
                         14       1    1hx3y2            1.319300       8.367012
                         14       1    1hx3yz            1.319300      14.492090
                         14       1    1hx3z2            1.319300       8.367012
                         14       1    1hx2y3            1.319300       8.367012
                         14       1    1hx2y2z           1.319300      18.709208
                         14       1    1hx2yz2           1.319300      18.709208
                         14       1    1hx2z3            1.319300       8.367012
                         14       1    1hxy4             1.319300       5.477495
                         14       1    1hxy3z            1.319300      14.492090
                         14       1    1hxy2z2           1.319300      18.709208
                         14       1    1hxyz3            1.319300      14.492090
                         14       1    1hxz4             1.319300       5.477495
                         14       1    1hy5              1.319300       1.825832
                         14       1    1hy4z             1.319300       5.477495
                         14       1    1hy3z2            1.319300       8.367012
                         14       1    1hy2z3            1.319300       8.367012
                         14       1    1hyz4             1.319300       5.477495
                         14       1    1hz5              1.319300       1.825832

                         15       1    1gx4              1.482770       3.287671
                         15       1    1gx3y             1.482770       8.698360
                         15       1    1gx3z             1.482770       8.698360
                         15       1    1gx2y2            1.482770      11.229534
                         15       1    1gx2yz            1.482770      19.450124
                         15       1    1gx2z2            1.482770      11.229534
                         15       1    1gxy3             1.482770       8.698360
                         15       1    1gxy2z            1.482770      19.450124
                         15       1    1gxyz2            1.482770      19.450124
                         15       1    1gxz3             1.482770       8.698360
                         15       1    1gy4              1.482770       3.287671
                         15       1    1gy3z             1.482770       8.698360
                         15       1    1gy2z2            1.482770      11.229534
                         15       1    1gyz3             1.482770       8.698360
                         15       1    1gz4              1.482770       3.287671

                         16       1    1fx3              1.544330       3.913990
                         16       1    1fx2y             1.544330       8.751947
                         16       1    1fx2z             1.544330       8.751947
                         16       1    1fxy2             1.544330       8.751947
                         16       1    1fxyz             1.544330      15.158817
                         16       1    1fxz2             1.544330       8.751947
                         16       1    1fy3              1.544330       3.913990
                         16       1    1fy2z             1.544330       8.751947
                         16       1    1fyz2             1.544330       8.751947
                         16       1    1fz3              1.544330       3.913990

                         17       1    1px               2.075610       3.551177
                         17       1    1py               2.075610       3.551177
                         17       1    1pz               2.075610       3.551177

                         18       1    1s                2.248340       1.308599

                         19       1    1dx2              2.262180       6.868027
                         19       1    1dxy              2.262180      11.895771
                         19       1    1dxz              2.262180      11.895771
                         19       1    1dy2              2.262180       6.868027
                         19       1    1dyz              2.262180      11.895771
                         19       1    1dz2              2.262180       6.868027

                         20       1    1hx5              2.294020      11.022626
                         20       1    1hx4y             2.294020      33.067878
                         20       1    1hx4z             2.294020      33.067878
                         20       1    1hx3y2            2.294020      50.512017
                         20       1    1hx3yz            2.294020      87.489380
                         20       1    1hx3z2            2.294020      50.512017
                         20       1    1hx2y3            2.294020      50.512017
                         20       1    1hx2y2z           2.294020     112.948304
                         20       1    1hx2yz2           2.294020     112.948304
                         20       1    1hx2z3            2.294020      50.512017
                         20       1    1hxy4             2.294020      33.067878
                         20       1    1hxy3z            2.294020      87.489380
                         20       1    1hxy2z2           2.294020     112.948304
                         20       1    1hxyz3            2.294020      87.489380
                         20       1    1hxz4             2.294020      33.067878
                         20       1    1hy5              2.294020      11.022626
                         20       1    1hy4z             2.294020      33.067878
                         20       1    1hy3z2            2.294020      50.512017
                         20       1    1hy2z3            2.294020      50.512017
                         20       1    1hyz4             2.294020      33.067878
                         20       1    1hz5              2.294020      11.022626

                         21       1    1ix6              2.487090      13.630788
                         21       1    1ix5y             2.487090      45.208208
                         21       1    1ix5z             2.487090      45.208208
                         21       1    1ix4y2            2.487090      78.302913
                         21       1    1ix4yz            2.487090     135.624624
                         21       1    1ix4z2            2.487090      78.302913
                         21       1    1ix3y3            2.487090      92.649256
                         21       1    1ix3y2z           2.487090     207.170035
                         21       1    1ix3yz2           2.487090     207.170035
                         21       1    1ix3z3            2.487090      92.649256
                         21       1    1ix2y4            2.487090      78.302913
                         21       1    1ix2y3z           2.487090     207.170035
                         21       1    1ix2y2z2          2.487090     267.455365
                         21       1    1ix2yz3           2.487090     207.170035
                         21       1    1ix2z4            2.487090      78.302913
                         21       1    1ixy5             2.487090      45.208208
                         21       1    1ixy4z            2.487090     135.624624
                         21       1    1ixy3z2           2.487090     207.170035
                         21       1    1ixy2z3           2.487090     207.170035
                         21       1    1ixyz4            2.487090     135.624624
                         21       1    1ixz5             2.487090      45.208208
                         21       1    1iy6              2.487090      13.630788
                         21       1    1iy5z             2.487090      45.208208
                         21       1    1iy4z2            2.487090      78.302913
                         21       1    1iy3z3            2.487090      92.649256
                         21       1    1iy2z4            2.487090      78.302913
                         21       1    1iyz5             2.487090      45.208208
                         21       1    1iz6              2.487090      13.630788

                         22       1    1fx3              2.818460      15.152391
                         22       1    1fx2y             2.818460      33.881776
                         22       1    1fx2z             2.818460      33.881776
                         22       1    1fxy2             2.818460      33.881776
                         22       1    1fxyz             2.818460      58.684958
                         22       1    1fxz2             2.818460      33.881776
                         22       1    1fy3              2.818460      15.152391
                         22       1    1fy2z             2.818460      33.881776
                         22       1    1fyz2             2.818460      33.881776
                         22       1    1fz3              2.818460      15.152391

                         23       1    1gx4              3.053470      23.967238
                         23       1    1gx3y             3.053470      63.411351
                         23       1    1gx3z             3.053470      63.411351
                         23       1    1gx2y2            3.053470      81.863702
                         23       1    1gx2yz            3.053470     141.792090
                         23       1    1gx2z2            3.053470      81.863702
                         23       1    1gxy3             3.053470      63.411351
                         23       1    1gxy2z            3.053470     141.792090
                         23       1    1gxyz2            3.053470     141.792090
                         23       1    1gxz3             3.053470      63.411351
                         23       1    1gy4              3.053470      23.967238
                         23       1    1gy3z             3.053470      63.411351
                         23       1    1gy2z2            3.053470      81.863702
                         23       1    1gyz3             3.053470      63.411351
                         23       1    1gz4              3.053470      23.967238

                         24       1    1dx2              3.550630      15.116246
                         24       1    1dxy              3.550630      26.182105
                         24       1    1dxz              3.550630      26.182105
                         24       1    1dy2              3.550630      15.116246
                         24       1    1dyz              3.550630      26.182105
                         24       1    1dz2              3.550630      15.116246

                         25       1    1px               3.761240       7.466274
                         25       1    1py               3.761240       7.466274
                         25       1    1pz               3.761240       7.466274

                         26       1    1s                3.809660       1.943456

                         27       1    1hx5              3.904570      62.080772
                         27       1    1hx4y             3.904570     186.242316
                         27       1    1hx4z             3.904570     186.242316
                         27       1    1hx3y2            3.904570     284.489837
                         27       1    1hx3yz            3.904570     492.750852
                         27       1    1hx3z2            3.904570     284.489837
                         27       1    1hx2y3            3.904570     284.489837
                         27       1    1hx2y2z           3.904570     636.138614
                         27       1    1hx2yz2           3.904570     636.138614
                         27       1    1hx2z3            3.904570     284.489837
                         27       1    1hxy4             3.904570     186.242316
                         27       1    1hxy3z            3.904570     492.750852
                         27       1    1hxy2z2           3.904570     636.138614
                         27       1    1hxyz3            3.904570     492.750852
                         27       1    1hxz4             3.904570     186.242316
                         27       1    1hy5              3.904570      62.080772
                         27       1    1hy4z             3.904570     186.242316
                         27       1    1hy3z2            3.904570     284.489837
                         27       1    1hy2z3            3.904570     284.489837
                         27       1    1hyz4             3.904570     186.242316
                         27       1    1hz5              3.904570      62.080772

                         28       1    1fx3              4.611490      45.877243
                         28       1    1fx2y             4.611490     102.584634
                         28       1    1fx2z             4.611490     102.584634
                         28       1    1fxy2             4.611490     102.584634
                         28       1    1fxyz             4.611490     177.681798
                         28       1    1fxz2             4.611490     102.584634
                         28       1    1fy3              4.611490      45.877243
                         28       1    1fy2z             4.611490     102.584634
                         28       1    1fyz2             4.611490     102.584634
                         28       1    1fz3              4.611490      45.877243

                         29       1    1gx4              5.478920     119.631780
                         29       1    1gx3y             5.478920     316.515938
                         29       1    1gx3z             5.478920     316.515938
                         29       1    1gx2y2            5.478920     408.620318
                         29       1    1gx2yz            5.478920     707.751152
                         29       1    1gx2z2            5.478920     408.620318
                         29       1    1gxy3             5.478920     316.515938
                         29       1    1gxy2z            5.478920     707.751152
                         29       1    1gxyz2            5.478920     707.751152
                         29       1    1gxz3             5.478920     316.515938
                         29       1    1gy4              5.478920     119.631780
                         29       1    1gy3z             5.478920     316.515938
                         29       1    1gy2z2            5.478920     408.620318
                         29       1    1gyz3             5.478920     316.515938
                         29       1    1gz4              5.478920     119.631780

                         30       1    1dx2              5.810520      35.791979
                         30       1    1dxy              5.810520      61.993525
                         30       1    1dxz              5.810520      61.993525
                         30       1    1dy2              5.810520      35.791979
                         30       1    1dyz              5.810520      61.993525
                         30       1    1dz2              5.810520      35.791979

                         31       1    1px               7.480640      17.634515
                         31       1    1py               7.480640      17.634515
                         31       1    1pz               7.480640      17.634515

                         32       1    1s                8.569100       3.569534

                         33       1    1fx3             10.195600     273.453335
                         33       1    1fx2y            10.195600     611.460245
                         33       1    1fx2z            10.195600     611.460245
                         33       1    1fxy2            10.195600     611.460245
                         33       1    1fxyz            10.195600    1059.080212
                         33       1    1fxz2            10.195600     611.460245
                         33       1    1fy3             10.195600     273.453335
                         33       1    1fy2z            10.195600     611.460245
                         33       1    1fyz2            10.195600     611.460245
                         33       1    1fz3             10.195600     273.453335

                         34       1    1dx2             17.120900     237.181597
                         34       1    1dxy             17.120900     410.810577
                         34       1    1dxz             17.120900     410.810577
                         34       1    1dy2             17.120900     237.181597
                         34       1    1dyz             17.120900     410.810577
                         34       1    1dz2             17.120900     237.181597

                         35       1    1s               18.515300       6.361480

                         36       1    1px              18.749800      55.614225
                         36       1    1py              18.749800      55.614225
                         36       1    1pz              18.749800      55.614225

                         37       1    1px              66.987000     273.167010
                         37       1    1py              66.987000     273.167010
                         37       1    1pz              66.987000     273.167010

                         38       1    1s               72.692500      17.743010

                         39       1    1s              330.814000      55.283815

       Atomic covalent radius [Angstrom]:                                  0.750

       Atomic van der Waals radius [Angstrom]:                             1.550

     The atoms of this atomic kind are PAW atoms (GAPW):
       Hard Gaussian function radius:                                      1.512
       Rho0 radius:                                                        1.512
       Maximum GTO radius used for PAW projector construction:            24.566

     GAPW Soft Basis Set                                            cc-pV5Z_soft

       Number of orbital shell sets:                                           6
       Number of orbital shells:                                              21
       Number of primitive Cartesian functions:                               18
       Number of Cartesian basis functions:                                  126
       Number of spherical basis functions:                                   91
       Norm type:                                                              2

       Normalised Cartesian orbitals:

                        Set   Shell   Orbital            Exponent    Coefficient

                          1       1    1px               3.995000       0.000000
                                                         1.587000       2.538991
                                                         0.653300       0.000000
                                                         0.268600       0.000000
                                                         0.106700       0.000000
                          1       1    1py               3.995000       0.000000
[...]
 Theor. Chem. Acc. 103, 124-140 (1999).
 The Gaussian and augmented-plane-wave density functional method for ab initio 
 molecular dynamics simulations.
 https://doi.org/10.1007/s002140050523

 J. P. Perdew, K. Burke, M. Ernzerhof.
 Phys. Rev. Lett. 77, 3865-3868 (1996).
 Generalized gradient approximation made simple.
 https://doi.org/10.1103/PhysRevLett.77.3865


 -------------------------------------------------------------------------------
 -                                                                             -
 -                                T I M I N G                                  -
 -                                                                             -
 -------------------------------------------------------------------------------
 SUBROUTINE                       CALLS  ASD         SELF TIME        TOTAL TIME
                                MAXIMUM       AVERAGE  MAXIMUM  AVERAGE  MAXIMUM
 CP2K                                 1  1.0    0.105    0.172 1052.325 1052.326
 qs_energies                          1  2.0    0.000    0.001 1048.898 1048.898
 integrate_four_center              470  9.9   30.735   43.127  604.258  606.521
 qs_energies_properties               1  3.0    0.000    0.000  567.428  567.428
 tddfpt                               1  4.0    0.000    0.001  567.428  567.428
 tddfpt_energies                      1  5.0    0.000    0.000  567.032  567.033
 tddfpt_davidson_solver               1  6.0    0.002    0.003  558.591  558.592
 tddfpt_compute_Aop_evects           10  7.0    0.000    0.000  550.854  550.854
 scf_env_do_scf                       1  3.0    0.000    0.000  475.007  475.021
 scf_env_do_scf_inner_loop           70  4.0    0.002    0.005  475.006  475.020
 qs_ks_update_qs_env                 70  5.0    0.001    0.001  435.511  435.721
 rebuild_ks_matrix                   70  6.0    0.000    0.000  435.500  435.711
 qs_ks_build_kohn_sham_matrix        70  7.0    0.010    0.011  435.500  435.710
 integrate_four_center_main         470 10.9   16.773   77.685  252.311  381.311
 integrate_four_center_bin       173548 11.9  235.538  374.703  235.538  374.703
 hfx_ks_matrix                       70  8.0    0.003    0.003  357.956  358.257
 fhxc_kernel                         10  8.0    0.008    0.009  285.822  285.822
 tddfpt_apply_hfx                    10  8.0    0.005    0.006  261.100  261.100
 tddft_hfx_matrix                   400  9.0    0.014    0.015  246.322  248.282
 mp_sync                           5732 13.5  200.936  240.951  200.936  240.951
 tddfpt_apply_coulomb               200  9.0    0.003    0.003   99.833  100.370
 prepare_gapw_den                   271  8.7    0.008    0.010   98.068   98.119
 calculate_rho_atom                1084  9.7   11.007   88.174   11.007   88.176
 pw_poisson_solve                   270  9.5    0.876    1.013   86.036   86.575
 fft_wrap_pw1pw2                   5484 11.1    0.056    0.066   83.266   84.372
 mp_sum_dv                        50975  8.8   80.382   81.697   80.382   81.697
 fft_wrap_pw1pw2_250               3858 12.2    0.792    0.851   80.020   81.192
 fft3d_pb                          3858 13.2    2.786    3.172   78.193   79.355
 mp_alltoall_z22v                  9342 15.1   75.256   76.638   75.256   76.638
 qs_rho_update_rho_low              272  7.9    0.003    0.004   76.016   76.047
 mp_waitall_1                   1125616 13.0   52.996   73.594   52.996   73.594
 gaVxcgb_GC                         810  9.7    0.578   72.143    0.578   72.143
 cube_transpose_1                  2774 13.8    0.186    0.246   63.597   67.495
 cube_transpose_3                  1964 13.7    0.187    0.270    5.425   65.835
 calculate_xc_2nd_deriv_atom        200  9.0    0.113    8.709    0.567   62.873
 calc_screening_functions             1 10.0   53.325   55.250   60.220   62.109
 integrate_v_rspace                 270  9.0    0.007    0.008   58.109   58.647
 mp_alltoall_d11v                 17492 11.7   55.243   57.137   55.243   57.137
 calculate_rho_elec                 272  8.9    0.254    0.268   53.145   53.173
 density_rs2pw                      272  9.9    0.012    0.014   38.123   42.656
 rs_gather_matrices                 270 10.0    0.038    0.108   41.744   42.570
 grid_integrate_task_list           270 10.0    0.771   40.902    0.771   40.902
 transfer_rs2pw                    1360 10.9    0.024    0.031   35.572   40.106
 mp_sum_dm                        14759 10.1   37.836   38.148   37.836   38.148
 grid_collocate_task_list           272  9.9   12.837   32.188   12.837   32.188
 mp_sum_d                         17667  7.2   28.559   30.684   28.559   30.684
 integrate_four_center_dist_KS      470 10.9    0.933    1.026   30.059   30.085
 cp_dbcsr_sm_fm_multiply           1246  8.6    0.033    0.038   25.756   28.461
 mp_waitany                       26030 12.9   21.227   27.090   21.227   27.090
 transfer_rs2pw_250                 544 11.8    0.892    1.017   15.033   26.523
 integrate_four_center_getP         470 10.9    1.216    1.285   24.796   25.032
 mp_isendrecv_dv                 756280 12.3    7.947   24.437    7.947   24.437
 calculate_rho_atom_coeff           272  8.9    0.425    0.861   22.868   22.875
 dbcsr_complete_redistribute       4129 10.5    0.246    0.399   19.504   22.246
 integrate_vhg0_rspace              270  9.5    3.090    3.410   20.467   20.480
 cp_fm_syevd                        123  7.2    0.001    0.001   20.416   20.435
 calculate_vxc_atom                  70  8.0    0.055    1.541   20.333   20.333
 cp_fm_redistribute_end             123  8.2   10.188   20.175   10.220   20.189
 cp_fm_syevd_base                   123  8.2    9.941   19.917    9.941   19.917
 transfer_rs2pw_90                  272 11.9    0.237    0.292    8.896   18.851
 qs_scf_new_mos                      70  5.0    0.001    0.001   18.034   18.095
 copy_fm_to_dbcsr                  2787  9.6    0.016    0.018   14.086   16.828
 ps_wavelet_solve                   270 10.5   10.904   13.679   16.410   16.759
 eigensolver_symm                    70  6.0    0.003    0.004   16.247   16.264
 potential_pw2rs                    270 10.0    0.020    0.022   15.586   16.131
 sum_up_and_integrate                70  8.0    0.001    0.001   15.291   15.839
 transfer_pw2rs                    1351 10.9    0.014    0.016   14.269   14.560
 powell_optimize                4874949 11.0   12.161   12.987   12.161   12.987
 mp_alltoall_d54                    270 11.5    3.668   12.721    3.668   12.721
 copy_dbcsr_to_fm                  1340  9.3    0.031    0.034   11.448   12.113
 transfer_rs2pw_30                  272 11.9    3.134    3.452    8.669    9.268
 mp_alltoall_i11v                 13728 11.5    8.904    8.909    8.904    8.909
 calc_pair_dist_radii                 1 10.0    2.185    2.280    7.452    8.247
 mp_sendrecv_dv                  277984 12.9    7.656    7.941    7.656    7.941
 mp_alltoall_i22                   5470 11.5    4.972    7.880    4.972    7.880
 tddfpt_print_nto_analysis            1  6.0    0.003    0.004    7.344    7.345
 xc_pw_derive                      1623 11.0    0.007    0.008    7.166    7.265
 dbcsr_multiply_generic            1716 10.3    0.088    0.100    6.620    7.241
 transfer_pw2rs_30                  270 12.0    2.799    3.065    6.425    6.669
 dbcsr_desymmetrize_deep           1341 10.3    0.040    0.055    5.829    6.497
 tddfpt_apply_xc_analytic           200  9.0    0.019    0.024    6.290    6.340
 cp_fm_geeig                         20  7.0    0.001    0.001    6.143    6.147
 calculate_rho0_atom               1084  9.7    4.707    6.061    4.707    6.061
 qs_energies_init_hamiltonians        1  3.0    0.000    0.000    5.810    5.811
 build_core_hamiltonian_matrix        1  4.0    0.000    0.000    5.782    5.782
 overlap_condnum                      1  5.0    0.000    0.000    5.758    5.778
 Vh_1c_gg_integrals                 270  9.5    0.088    5.654    5.698    5.733
 cp_dbcsr_sm_fm_multiply_core      1246  9.6    0.004    0.005    4.905    5.495
 arnoldi_conjugate_gradient           5  6.0    0.068    0.083    5.352    5.352
 xc_pw_divergence                   270 10.7    0.003    0.004    4.823    4.907
 multiply_cannon                   1716 11.3    0.267    0.278    4.040    4.720
 cube_transpose_2                  2710 14.4    0.161    0.195    3.730    4.429
 tddfpt_orthonormalize_psi1_psi      11  6.9    0.029    0.032    4.376    4.377
 transfer_pw2rs_250                 541 11.7    0.762    0.827    3.826    4.281
 multiply_cannon_loop              1716 12.3    0.525    0.610    3.344    3.964
 tddfpt_apply_energy_diff            10  8.0    0.001    0.002    3.932    3.932
 cp_dbcsr_plus_fm_fm_t              270  8.5    0.005    0.005    3.848    3.922
 put_rho0_on_grid                   271  9.7    0.300    0.426    3.759    3.810
 xc_calc_2nd_deriv_analytical      1400 10.1    0.124    0.224    3.659    3.785
 mp_sum_l                          6520 10.6    2.354    3.735    2.354    3.735
 parallel_gemm_fm                  1829  8.3    0.003    0.003    3.642    3.681
 parallel_gemm_fm_gemm             1829  9.3    0.003    0.003    3.640    3.678
 cp_fm_gemm                        1829 10.3    3.637    3.676    3.637    3.676
 cube_transpose_4                  1894 14.6    0.176    0.214    3.221    3.640
 integrate_four_center_load         470 10.9    0.002    0.003    2.190    3.545
 hfx_load_balance                     1 11.0    0.000    0.000    2.189    3.543
 transfer_rs2pw_10                  272 11.9    0.829    0.919    2.950    3.476
 hfx_load_balance_range               1 12.0    0.000    0.000    1.985    3.340
 fft3d_ps                          1626 13.0    0.181    0.299    3.101    3.313
 tddfpt_compute_residual_vects        9  7.0    0.001    0.001    3.150    3.150
 dbcsr_sym_matrix_vector_mult     10015  7.0    0.160    0.177    2.749    3.090
 hybrid_alltoall_any               4773 13.5    0.061    0.098    2.737    2.888
 mp_alltoall_d45                    271 11.5    1.834    2.713    1.834    2.713
 create_qs_kind_set                   1  2.0    0.000    0.000    2.641    2.642
 read_qs_kind                         4  3.0    1.469    1.494    2.641    2.642
 transfer_pw2rs_10                  270 12.0    0.806    0.841    2.530    2.639
 qs_vxc_create                       70  8.0    0.001    0.001    2.626    2.627
 xc_vxc_pw_create                    70  9.0    0.071    0.076    2.625    2.626
 update_ks_atom                     270  8.7    0.315    1.182    1.588    2.438
 multiply_cannon_metrocomm3       54912 13.3    0.172    0.182    1.142    2.399
 dbcsr_add_d                      15075  7.0    0.014    0.016    0.250    2.371
 dbcsr_add_anytype                15075  8.0    0.018    0.216    0.236    2.356
 mp_isend_dm3                     13014 12.9    0.769    2.139    0.769    2.139
 make_m2s                          3432 11.3    0.069    0.078    1.829    2.026
 make_images                       3432 12.3    0.633    0.717    1.650    1.818
 gspace_mixing                       69  5.0    0.064    0.068    1.815    1.818
 rs_scatter_matrices                272  9.9    0.007    0.013    1.730    1.816
 dbcsr_finalize                   22937 11.3    0.073    0.544    0.465    1.782
 fft_wrap_pw1pw2_90                 542 12.0    0.029    0.082    1.600    1.759
 multiply_cannon_metrocomm1       54912 13.3    0.093    0.098    0.609    1.715
 transfer_pw2rs_90                  270 12.0    0.189    0.208    1.474    1.598
 cp2k_distribution_to_z_slices      270 10.5    0.534    0.567    1.433    1.484
 dbcsr_rep_row_to_rep_col_vec     10015  8.0    0.055    0.072    0.639    1.447
 broyden_mixing                      69  6.0    1.270    1.394    1.408    1.437
 dbcsr_col_vec_to_rep_row         10015  8.0    0.073    0.089    0.953    1.329
 mp_bcast_dm                       9720  9.7    1.273    1.312    1.273    1.312
 xc_rho_set_and_dset_create          71 10.0    0.034    0.037    1.209    1.296
 mp_irecv_dm3                     13014 12.9    0.276    1.274    0.276    1.274
 multiply_cannon_metrocomm4       53196 13.3    0.164    0.180    0.420    1.188
 parser_read_line                314233  4.0    0.105    0.121    1.171    1.181
 parser_read_line_low               338  5.0    0.093    0.461    1.066    1.080
 calculate_dm_sparse                 70  6.0    0.001    0.001    1.001    1.052
 mp_bcast_dv                      10138  9.0    0.561    1.048    0.561    1.048
 yz_to_xz                           810 14.0    0.118    0.183    0.914    1.046
 broadcast_input_information        338  6.0    0.229    0.254    0.973    1.011
 fft_wrap_pw1pw2_30                 542 12.0    0.007    0.045    0.914    0.953
 mp_irecv_dv                     121640 14.2    0.152    0.950    0.152    0.950
 dbcsr_merge_all                  21131 12.3    0.199    0.705    0.270    0.895
 multiply_cannon_multrec          54912 13.3    0.328    0.854    0.336    0.864
 xz_to_yz                           816 13.9    0.057    0.120    0.722    0.828
 cp_fm_trace_a1b1t1_aa            20310  8.0    0.129    0.146    0.814    0.821
 dbcsr_iterator_start            144791  9.4    0.366    0.635    0.402    0.779
 mp_rank_compare                   1626 14.0    0.682    0.772    0.682    0.772
 cp_fm_triangular_multiply           60  8.0    0.754    0.759    0.754    0.759
 rs_grid_zero                      1353 11.9    0.678    0.748    0.678    0.748
 mp_isend_dv                     124086 14.2    0.271    0.720    0.271    0.720
 fft_wrap_pw1pw2_10                 542 12.0    0.003    0.027    0.675    0.684
 make_images_sizes                 3432 13.3    0.004    0.005    0.620    0.659
 mp_alltoall_i44                   3432 14.3    0.616    0.655    0.616    0.655
 tddfpt_construct_ground_state_       1  6.0    0.000    0.000    0.653    0.654
 pw_scatter_p                      2774 12.8    0.501    0.616    0.501    0.616
 cp_fm_symm                          70  7.0    0.585    0.608    0.585    0.608
 init_scf_run                         1  3.0    0.000    0.000    0.606    0.606
 cp_fm_triangular_invert             20  8.0    0.604    0.605    0.604    0.605
 cp_fm_cholesky_decompose            21  8.0    0.598    0.599    0.598    0.599
 pw_integral_ab_c1d_c1d_gs          270 10.5    0.345    0.366    0.480    0.549
 mp_bcast_am_src                    338  7.0    0.427    0.505    0.455    0.532
 dbcsr_sym_matrix_vector_mult_l   10015  8.0    0.118    0.409    0.232    0.519
 pw_poisson_rebuild                 270 10.5    0.000    0.000    0.512    0.517
 ps_wavelet_create                    1 10.0    0.000    0.000    0.511    0.517
 RS_z_slice_distribution              1 11.0    0.422    0.497    0.511    0.517
 mp_bcast_i_src                    1352  7.0    0.275    0.509    0.275    0.509
 qs_init_subsys                       1  2.0    0.009    0.009    0.502    0.502
 multiply_cannon_metrocomm2       51480 13.3    0.158    0.173    0.311    0.482
 pw_gather_p                       2710 13.4    0.375    0.452    0.375    0.452
 xc_functional_eval                1691 10.9    0.001    0.006    0.249    0.451
 pbe_lda_eval                      1691 11.9    0.248    0.445    0.248    0.445
 mp_cart_sub                       2687 11.3    0.433    0.435    0.433    0.435
 dbcsr_copy                       44200  7.8    0.242    0.302    0.357    0.429
 qs_env_setup                         1  3.0    0.000    0.000    0.405    0.421
 qs_env_rebuild_pw_env                2  3.5    0.000    0.000    0.404    0.419
 pw_env_rebuild                       1  5.0    0.000    0.001    0.404    0.419
 mp_allgather_i34                  1716 12.3    0.321    0.417    0.321    0.417
 make_images_data                  3432 13.3    0.068    0.083    0.206    0.412
 xc_2nd_deriv_of_r                 1200 10.0    0.001    0.111    0.004    0.406
 dbcsr_work_create                27620 12.2    0.092    0.253    0.143    0.389
 dbcsr_iterator_stop             144791  9.4    0.219    0.348    0.248    0.383
 scf_env_initial_rho_setup            1  4.0    0.000    0.000    0.353    0.353
 mp_isend_zv                      57280 15.0    0.080    0.349    0.080    0.349
 cp_fm_redistribute_start           123  8.2    0.203    0.257    0.254    0.335
 mp_cart_create                    2425 10.6    0.299    0.328    0.301    0.330
 dbcsr_work_destroy_all           27620 13.1    0.078    0.223    0.116    0.321
 dbcsr_create_new                 67404  9.9    0.225    0.245    0.286    0.309
 mp_max_i                           745  5.2    0.224    0.295    0.224    0.295
 tddfpt_init_mos                      1  5.0    0.000    0.000    0.262    0.262
 tddfpt_init_ground_state_mos         1  6.0    0.000    0.000    0.262    0.262
 tddfpt_compute_ritz_vects           10  7.0    0.005    0.005    0.260    0.260
 cp_fm_power                          1  6.0    0.001    0.002    0.248    0.248
 eigensolver                          1  7.0    0.000    0.000    0.232    0.232
 dbcsr_data_new                  357326 12.2    0.134    0.230    0.134    0.230
 dbcsr_scale_anytype              15077  9.0    0.036    0.057    0.179    0.221
 pw_copy                           3655 11.0    0.178    0.215    0.178    0.215
 compute_max_radius                   1  6.0    0.200    0.209    0.200    0.209
 pw_derive                         2433 11.8    0.179    0.208    0.179    0.208
 pw_grid_setup                        4  6.0    0.000    0.000    0.188    0.203
 pw_grid_setup_internal               4  7.0    0.002    0.003    0.188    0.203
 dbcsr_data_release              522027 11.7    0.110    0.189    0.110    0.189
 create_fast_row_vec_access       20030  8.0    0.115    0.138    0.160    0.183
 create_fast_col_vec_access       20030  8.0    0.116    0.137    0.160    0.182
 dbcsr_iterator_seek             144791 10.4    0.036    0.175    0.036    0.175
 copy_fm_to_dbcsr_bc               2787 10.6    0.058    0.063    0.158    0.173
 tddfpt_orthogonalize_psi1_psi0      11  6.9    0.000    0.000    0.163    0.165
 mp_cart_rank                    554640 11.0    0.133    0.157    0.133    0.157
 hfx_load_balance_redist              1 12.0    0.111    0.124    0.124    0.137
 pw_copy_from_array                2774 12.8    0.093    0.135    0.093    0.135
 pw_copy_to_array                  2710 13.4    0.116    0.134    0.116    0.134
 cp_fm_write_unformatted             44  7.5    0.065    0.109    0.068    0.130
 pw_zero                           3026 10.6    0.117    0.129    0.117    0.129
 pw_poisson_set                     271 10.5    0.003    0.004    0.115    0.126
 mp_max_d                           252  8.4    0.071    0.122    0.071    0.122
 mp_isend_iv                     114502 14.3    0.099    0.119    0.099    0.119
 pw_axpy                           2908 10.9    0.082    0.115    0.082    0.115
 scale_and_distribute               540 11.5    0.094    0.111    0.094    0.111
 dbcsr_destroy                    47308  9.8    0.061    0.064    0.093    0.106
 merge_index                      21131 13.3    0.017    0.105    0.017    0.105
 -------------------------------------------------------------------------------

 The number of warnings for this run is : 2
 
 -------------------------------------------------------------------------------
  **** **** ******  **  PROGRAM ENDED AT                 2025-04-22 04:02:59.291
 ***** ** ***  *** **   PROGRAM RAN ON                              i06r04c06s07
 **    ****   ******    PROGRAM RAN BY                                   di38fab
 ***** **    ** ** **   PROGRAM PROCESS ID                               3666485
  **** **  *******  **  PROGRAM STOPPED IN /hppfs/scratch/04/di38fab/07_MOL_non_
                                           aug/05_MOL_non_aug/05_MOL/aUKBqsEOTmq
                                           69kFe5R_nOg/5k_set_final_qzvp/PRHDNA0
                                           1/cc-pV5Z/TDDFT
