 DBCSR| CPU Multiplication driver                                           BLAS (U)
 DBCSR| Multrec recursion limit                                              512 (U)
 DBCSR| Multiplication stack size                                           1000 (D)
 DBCSR| Maximum elements for images                                    UNLIMITED (U)
 DBCSR| Multiplicative factor virtual images                                   1 (U)
 DBCSR| Use multiplication densification                                       T (D)
 DBCSR| Multiplication size stacks                                             3 (U)
 DBCSR| Use memory pool for CPU allocation                                     F (U)
 DBCSR| Number of 3D layers                                               SINGLE (U)
 DBCSR| Use MPI memory allocation                                              F (U)
 DBCSR| Use RMA algorithm                                                      F (U)
 DBCSR| Use Communication thread                                               T (U)
 DBCSR| Communication thread load                                             75 (D)
 DBCSR| MPI: My process id                                                     0
 DBCSR| MPI: Number of processes                                             216
 DBCSR| OMP: Current number of threads                                         4
 DBCSR| OMP: Max number of threads                                             4
 DBCSR| Split modifier for TAS multiplication algorithm                  1.0E+00 (U)


  **** **** ******  **  PROGRAM STARTED AT               2025-04-11 17:19:15.495
 ***** ** ***  *** **   PROGRAM STARTED ON                          i04r07c03s01
 **    ****   ******    PROGRAM STARTED BY                               di38fab
 ***** **    ** ** **   PROGRAM PROCESS ID                               1962241
  **** **  *******  **  PROGRAM STARTED IN /hppfs/scratch/04/di38fab/07_MOL_non_
                                           aug/05_MOL_non_aug/05_MOL/W4-11+ALK/a
                                           llene/cc-pVQZ/GW+BSE

 CP2K| version string:                 CP2K version 2025.1 (Development Version)
 CP2K| source code revision number:                             unknown revision
 CP2K| cp2kflags: omp libint fftw3 libxc parallel scalapack max_contr=4         
 CP2K| is freely available from                            https://www.cp2k.org/
 CP2K| Program compiled at                         Thu Apr 10 16:20:23 CEST 2025
 CP2K| Program compiled on                                               login01
 CP2K| Program compiled for                                        Supermuc-foss
 CP2K| Data directory path                  /hppfs/work/pn36zo/di38fab/cp2k/data
 CP2K| Input file name                                                    GW.inp

 GLOBAL| Force Environment number                                              1
 GLOBAL| Basis set file name            /hppfs/scratch/04/di38fab/04_TMD/BASIS_A
 GLOBAL| Potential file name            /hppfs/work/pn36zo/di38fab/cp2k/data/ALL
 GLOBAL| MM Potential file name                                     MM_POTENTIAL
 GLOBAL| Coordinate file name                                      __STD_INPUT__
 GLOBAL| Method name                                                        CP2K
 GLOBAL| Project name                                                       MoS2
 GLOBAL| Run type                                                         ENERGY
 GLOBAL| FFT library                                                       FFTW3
 GLOBAL| Diagonalization library                                       ScaLAPACK
 GLOBAL| DGEMM library                                                      BLAS
 GLOBAL| Orthonormality check for eigenvectors                          DISABLED
 GLOBAL| Matrix multiplication library                                 ScaLAPACK
 GLOBAL| All-to-all communication in single precision                          F
 GLOBAL| FFTs using library dependent lengths                                  F
 GLOBAL| Grid backend                                                       AUTO
 GLOBAL| Global print level                                               MEDIUM
 GLOBAL| MPI I/O enabled                                                       T
 GLOBAL| Total number of message passing processes                           216
 GLOBAL| Number of threads for this process                                    4
 GLOBAL| This output is from process                                           0
 GLOBAL| OpenMP stack size per thread (OMP_STACKSIZE)                    default
 GLOBAL| CPU model name             Intel(R) Xeon(R) Platinum 8174 CPU @ 3.10GHz

 MEMORY| system memory details [Kb]
 MEMORY|                        rank 0           min           max       average
 MEMORY| MemTotal             98436660      98436660      98436736      98436674
 MEMORY| MemFree              83871340      83694556      84985624      84088058
 MEMORY| Buffers                     0             0             0             0
 MEMORY| Cached                2380392       2379052       2424392       2405571
 MEMORY| Slab                  1250632       1059008       1250632       1208042
 MEMORY| SReclaimable           274752        242504        274752        265081
 MEMORY| MemLikelyFree        86526484      86364764      87614916      86758710


 *** Fundamental physical constants (SI units) ***

 *** Literature: B. J. Mohr and B. N. Taylor,
 ***             CODATA recommended values of the fundamental physical
 ***             constants: 2006, Web Version 5.1
 ***             http://physics.nist.gov/constants

 Speed of light in vacuum [m/s]                             2.99792458000000E+08
 Magnetic constant or permeability of vacuum [N/A**2]       1.25663706143592E-06
 Electric constant or permittivity of vacuum [F/m]          8.85418781762039E-12
 Planck constant (h) [J*s]                                  6.62606896000000E-34
 Planck constant (h-bar) [J*s]                              1.05457162825177E-34
 Elementary charge [C]                                      1.60217648700000E-19
 Electron mass [kg]                                         9.10938215000000E-31
 Electron g factor [ ]                                     -2.00231930436220E+00
 Proton mass [kg]                                           1.67262163700000E-27
 Fine-structure constant                                    7.29735253760000E-03
 Rydberg constant [1/m]                                     1.09737315685270E+07
 Avogadro constant [1/mol]                                  6.02214179000000E+23
 Boltzmann constant [J/K]                                   1.38065040000000E-23
 Atomic mass unit [kg]                                      1.66053878200000E-27
 Bohr radius [m]                                            5.29177208590000E-11

 *** Conversion factors ***

 [u] -> [a.u.]                                              1.82288848426455E+03
 [Angstrom] -> [Bohr] = [a.u.]                              1.88972613288564E+00
 [a.u.] = [Bohr] -> [Angstrom]                              5.29177208590000E-01
 [a.u.] -> [s]                                              2.41888432650478E-17
 [a.u.] -> [fs]                                             2.41888432650478E-02
 [a.u.] -> [J]                                              4.35974393937059E-18
 [a.u.] -> [N]                                              8.23872205491840E-08
 [a.u.] -> [K]                                              3.15774647902944E+05
 [a.u.] -> [kJ/mol]                                         2.62549961709828E+03
 [a.u.] -> [kcal/mol]                                       6.27509468713739E+02
 [a.u.] -> [Pa]                                             2.94210107994716E+13
 [a.u.] -> [bar]                                            2.94210107994716E+08
 [a.u.] -> [atm]                                            2.90362800883016E+08
 [a.u.] -> [eV]                                             2.72113838565563E+01
 [a.u.] -> [Hz]                                             6.57968392072181E+15
 [a.u.] -> [1/cm] (wave numbers)                            2.19474631370540E+05
 [a.u./Bohr**2] -> [1/cm]                                   5.14048714338585E+03
 

 CELL_TOP| Volume [angstrom^3]:                                     27000.000000
 CELL_TOP| Vector a [angstrom    30.000     0.000     0.000   |a| =    30.000000
 CELL_TOP| Vector b [angstrom     0.000    30.000     0.000   |b| =    30.000000
 CELL_TOP| Vector c [angstrom     0.000     0.000    30.000   |c| =    30.000000
 CELL_TOP| Angle (b,c), alpha [degree]:                                90.000000
 CELL_TOP| Angle (a,c), beta  [degree]:                                90.000000
 CELL_TOP| Angle (a,b), gamma [degree]:                                90.000000
 CELL_TOP| Numerically orthorhombic:                                         YES
 CELL_TOP| Periodicity                                                      NONE

 GENERATE|  Preliminary Number of Bonds generated:                             0
 GENERATE|  Achieved consistency in connectivity generation.

 CELL| Volume [angstrom^3]:                                         27000.000000
 CELL| Vector a [angstrom]:      30.000     0.000     0.000   |a| =    30.000000
 CELL| Vector b [angstrom]:       0.000    30.000     0.000   |b| =    30.000000
 CELL| Vector c [angstrom]:       0.000     0.000    30.000   |c| =    30.000000
 CELL| Angle (b,c), alpha [degree]:                                    90.000000
 CELL| Angle (a,c), beta  [degree]:                                    90.000000
 CELL| Angle (a,b), gamma [degree]:                                    90.000000
 CELL| Numerically orthorhombic:                                             YES
 CELL| Periodicity                                                          NONE

 CELL_REF| Volume [angstrom^3]:                                     27000.000000
 CELL_REF| Vector a [angstrom    30.000     0.000     0.000   |a| =    30.000000
 CELL_REF| Vector b [angstrom     0.000    30.000     0.000   |b| =    30.000000
 CELL_REF| Vector c [angstrom     0.000     0.000    30.000   |c| =    30.000000
 CELL_REF| Angle (b,c), alpha [degree]:                                90.000000
 CELL_REF| Angle (a,c), beta  [degree]:                                90.000000
 CELL_REF| Angle (a,b), gamma [degree]:                                90.000000
 CELL_REF| Numerically orthorhombic:                                         YES
 CELL_REF| Periodicity                                                      NONE

 *******************************************************************************
 *******************************************************************************
 **                                                                           **
 **     #####                         ##              ##                      **
 **    ##   ##            ##          ##              ##                      **
 **   ##     ##                       ##            ######                    **
 **   ##     ##  ##   ##  ##   #####  ##  ##   ####   ##    #####    #####    **
 **   ##     ##  ##   ##  ##  ##      ## ##   ##      ##   ##   ##  ##   ##   **
 **   ##  ## ##  ##   ##  ##  ##      ####     ###    ##   ######   ######    **
 **    ##  ###   ##   ##  ##  ##      ## ##      ##   ##   ##       ##        **
 **     #######   #####   ##   #####  ##  ##  ####    ##    #####   ##        **
 **           ##                                                    ##        **
 **                                                                           **
 **                                                ... make the atoms dance   **
 **                                                                           **
 **            Copyright (C) by CP2K developers group (2000-2025)             **
 **                      J. Chem. Phys. 152, 194103 (2020)                    **
 **                                                                           **
 *******************************************************************************

 DFT| Spin restricted Kohn-Sham (RKS) calculation                            RKS
 DFT| Multiplicity                                                             1
 DFT| Number of spin states                                                    1
 DFT| Charge                                                                   0
 DFT| Self-interaction correction (SIC)                                       NO
 DFT| Cutoffs: density                                              1.000000E-10
 DFT|          gradient                                             1.000000E-10
 DFT|          tau                                                  1.000000E-10
 DFT|          cutoff_smoothing_range                               0.000000E+00
 DFT| XC density smoothing                                                  NONE
 DFT| XC derivatives                                                          PW

 FUNCTIONAL| PBE:
 FUNCTIONAL| J.P.Perdew, K.Burke, M.Ernzerhof, Phys. Rev. Letter, vol. 77, n 18,
 FUNCTIONAL|  pp. 3865-3868, (1996)sx=0.750sc=1.000{spin unpolarized}           


 QS| Method:                                                                GAPW
 QS| Density plane wave grid type                        NON-SPHERICAL FULLSPACE
 QS| Number of grid levels:                                                    4
 QS| Density cutoff [a.u.]:                                                250.0
 QS| Multi grid cutoff [a.u.]: 1) grid level                               250.0
 QS|                           2) grid level                                83.3
 QS|                           3) grid level                                27.8
 QS|                           4) grid level                                 9.3
 QS| Grid level progression factor:                                          3.0
 QS| Relative density cutoff [a.u.]:                                        50.0
 QS| Interaction thresholds: eps_pgf_orb:                                1.0E-12
 QS|                         eps_filter_matrix:                          0.0E+00
 QS|                         eps_core_charge:                            1.0E-14
 QS|                         eps_rho_gspace:                             1.0E-12
 QS|                         eps_rho_rspace:                             1.0E-12
 QS|                         eps_gvg_rspace:                             1.0E-06
 QS|                         eps_ppl:                                    1.0E-02
 QS|                         eps_ppnl:                                   1.0E-08
 QS| GAPW|      One center basis from orbital basis primitives
 QS| GAPW|                   eps_fit:                                    1.0E-04
 QS| GAPW|                   eps_iso:                                    1.0E-12
 QS| GAPW|                   eps_svd:                                    1.0E-08
 QS| GAPW|                   eps_cpc:                                    1.0E-12
 QS| GAPW|   atom-r-grid: quadrature:                                     GC_LOG
 QS| GAPW|      atom-s-grid:  max l :                                          8
 QS| GAPW|      max_l_rho0 :                                                   2


 ATOMIC KIND INFORMATION

  1. Atomic kind: C                                     Number of atoms:       3

     Orbital Basis Set                                                   cc-pVQZ

       Number of orbital shell sets:                                           5
       Number of orbital shells:                                              15
       Number of primitive Cartesian functions:                               24
       Number of Cartesian basis functions:                                   70
       Number of spherical basis functions:                                   55
       Norm type:                                                              2

       Normalised Cartesian orbitals:

                        Set   Shell   Orbital            Exponent    Coefficient

                          1       1    1px              34.510000       0.000000
                                                         7.915000       0.000000
                                                         2.368000       0.000000
                                                         0.813200       1.100745
                                                         0.289000       0.000000
                                                         0.100700       0.000000
                          1       1    1py              34.510000       0.000000
                                                         7.915000       0.000000
                                                         2.368000       0.000000
                                                         0.813200       1.100745
                                                         0.289000       0.000000
                                                         0.100700       0.000000
                          1       1    1pz              34.510000       0.000000
                                                         7.915000       0.000000
                                                         2.368000       0.000000
                                                         0.813200       1.100745
                                                         0.289000       0.000000
                                                         0.100700       0.000000

                          1       2    2px              34.510000       0.641198
                                                         7.915000       0.683747
                                                         2.368000       0.596637
                                                         0.813200       0.376620
                                                         0.289000       0.140105
                                                         0.100700       0.020217
                          1       2    2py              34.510000       0.641198
                                                         7.915000       0.683747
                                                         2.368000       0.596637
                                                         0.813200       0.376620
                                                         0.289000       0.140105
                                                         0.100700       0.020217
                          1       2    2pz              34.510000       0.641198
                                                         7.915000       0.683747
                                                         2.368000       0.596637
                                                         0.813200       0.376620
                                                         0.289000       0.140105
                                                         0.100700       0.020217

                          1       3    3px              34.510000       0.000000
                                                         7.915000       0.000000
                                                         2.368000       0.000000
                                                         0.813200       0.000000
                                                         0.289000       0.302039
                                                         0.100700       0.000000
                          1       3    3py              34.510000       0.000000
                                                         7.915000       0.000000
                                                         2.368000       0.000000
                                                         0.813200       0.000000
                                                         0.289000       0.302039
                                                         0.100700       0.000000
                          1       3    3pz              34.510000       0.000000
                                                         7.915000       0.000000
                                                         2.368000       0.000000
                                                         0.813200       0.000000
                                                         0.289000       0.302039
                                                         0.100700       0.000000

                          1       4    4px              34.510000       0.000000
                                                         7.915000       0.000000
                                                         2.368000       0.000000
                                                         0.813200       0.000000
                                                         0.289000       0.000000
                                                         0.100700       0.080859
                          1       4    4py              34.510000       0.000000
                                                         7.915000       0.000000
                                                         2.368000       0.000000
                                                         0.813200       0.000000
                                                         0.289000       0.000000
                                                         0.100700       0.080859
                          1       4    4pz              34.510000       0.000000
                                                         7.915000       0.000000
                                                         2.368000       0.000000
                                                         0.813200       0.000000
                                                         0.289000       0.000000
                                                         0.100700       0.080859

                          2       1    1s            33980.000000       0.162319
                                                      5089.000000       0.302313
                                                      1157.000000       0.522143
                                                       326.600000       0.841034
                                                       106.100000       1.247069
                                                        38.110000       1.607436
                                                        14.750000       1.639463
                                                         6.035000       1.095889
                                                         2.530000       0.310322
                                                         0.735500       0.008997
                                                         0.290500      -0.000870
                                                         0.111100       0.000134

                          2       2    2s            33980.000000       0.000000
                                                      5089.000000       0.000000
                                                      1157.000000       0.000000
                                                       326.600000       0.000000
                                                       106.100000       0.000000
                                                        38.110000       0.000000
                                                        14.750000       0.000000
                                                         6.035000       0.000000
                                                         2.530000       0.000000
                                                         0.735500       0.566040
                                                         0.290500       0.000000
                                                         0.111100       0.000000

                          2       3    3s            33980.000000       0.000000
                                                      5089.000000       0.000000
                                                      1157.000000       0.000000
                                                       326.600000       0.000000
                                                       106.100000       0.000000
                                                        38.110000       0.000000
                                                        14.750000       0.000000
                                                         6.035000       0.000000
                                                         2.530000       0.000000
                                                         0.735500       0.000000
                                                         0.290500       0.282013
                                                         0.111100       0.000000

                          2       4    4s            33980.000000      -0.033891
                                                      5089.000000      -0.064843
                                                      1157.000000      -0.110989
                                                       326.600000      -0.182005
                                                       106.100000      -0.271236
                                                        38.110000      -0.373428
                                                        14.750000      -0.413970
                                                         6.035000      -0.388287
                                                         2.530000      -0.168734
                                                         0.735500       0.154985
                                                         0.290500       0.165404
                                                         0.111100       0.039147

                          2       5    5s            33980.000000       0.000000
                                                      5089.000000       0.000000
                                                      1157.000000       0.000000
                                                       326.600000       0.000000
                                                       106.100000       0.000000
                                                        38.110000       0.000000
                                                        14.750000       0.000000
                                                         6.035000       0.000000
                                                         2.530000       0.000000
                                                         0.735500       0.000000
                                                         0.290500       0.000000
                                                         0.111100       0.137150

                          3       1    1dx2              1.848000       4.821009
                                                         0.649000       0.000000
                                                         0.228000       0.000000
                          3       1    1dxy              1.848000       8.350232
                                                         0.649000       0.000000
                                                         0.228000       0.000000
                          3       1    1dxz              1.848000       8.350232
                                                         0.649000       0.000000
                                                         0.228000       0.000000
                          3       1    1dy2              1.848000       4.821009
                                                         0.649000       0.000000
                                                         0.228000       0.000000
                          3       1    1dyz              1.848000       8.350232
                                                         0.649000       0.000000
                                                         0.228000       0.000000
                          3       1    1dz2              1.848000       4.821009
                                                         0.649000       0.000000
                                                         0.228000       0.000000

                          3       2    2dx2              1.848000       0.000000
                                                         0.649000       0.772392
                                                         0.228000       0.000000
                          3       2    2dxy              1.848000       0.000000
                                                         0.649000       1.337822
                                                         0.228000       0.000000
                          3       2    2dxz              1.848000       0.000000
                                                         0.649000       1.337822
                                                         0.228000       0.000000
                          3       2    2dy2              1.848000       0.000000
                                                         0.649000       0.772392
                                                         0.228000       0.000000
                          3       2    2dyz              1.848000       0.000000
                                                         0.649000       1.337822
                                                         0.228000       0.000000
                          3       2    2dz2              1.848000       0.000000
                                                         0.649000       0.772392
                                                         0.228000       0.000000

                          3       3    3dx2              1.848000       0.000000
                                                         0.649000       0.000000
                                                         0.228000       0.123821
                          3       3    3dxy              1.848000       0.000000
                                                         0.649000       0.000000
                                                         0.228000       0.214465
                          3       3    3dxz              1.848000       0.000000
                                                         0.649000       0.000000
                                                         0.228000       0.214465
                          3       3    3dy2              1.848000       0.000000
                                                         0.649000       0.000000
                                                         0.228000       0.123821
                          3       3    3dyz              1.848000       0.000000
                                                         0.649000       0.000000
                                                         0.228000       0.214465
                          3       3    3dz2              1.848000       0.000000
                                                         0.649000       0.000000
                                                         0.228000       0.123821

                          4       1    1fx3              1.419000       3.235302
                                                         0.485000       0.000000
                          4       1    1fx2y             1.419000       7.234355
                                                         0.485000       0.000000
                          4       1    1fx2z             1.419000       7.234355
                                                         0.485000       0.000000
                          4       1    1fxy2             1.419000       7.234355
                                                         0.485000       0.000000
                          4       1    1fxyz             1.419000      12.530271
                                                         0.485000       0.000000
                          4       1    1fxz2             1.419000       7.234355
                                                         0.485000       0.000000
                          4       1    1fy3              1.419000       3.235302
                                                         0.485000       0.000000
                          4       1    1fy2z             1.419000       7.234355
                                                         0.485000       0.000000
                          4       1    1fyz2             1.419000       7.234355
                                                         0.485000       0.000000
                          4       1    1fz3              1.419000       3.235302
                                                         0.485000       0.000000

                          4       2    2fx3              1.419000       0.000000
                                                         0.485000       0.288984
                          4       2    2fx2y             1.419000       0.000000
                                                         0.485000       0.646187
                          4       2    2fx2z             1.419000       0.000000
                                                         0.485000       0.646187
                          4       2    2fxy2             1.419000       0.000000
                                                         0.485000       0.646187
                          4       2    2fxyz             1.419000       0.000000
                                                         0.485000       1.119229
                          4       2    2fxz2             1.419000       0.000000
                                                         0.485000       0.646187
                          4       2    2fy3              1.419000       0.000000
                                                         0.485000       0.288984
                          4       2    2fy2z             1.419000       0.000000
                                                         0.485000       0.646187
                          4       2    2fyz2             1.419000       0.000000
                                                         0.485000       0.646187
                          4       2    2fz3              1.419000       0.000000
                                                         0.485000       0.288984

                          5       1    1gx4              1.011000       1.146835
                          5       1    1gx3y             1.011000       3.034241
                          5       1    1gx3z             1.011000       3.034241
                          5       1    1gx2y2            1.011000       3.917189
                          5       1    1gx2yz            1.011000       6.784770
                          5       1    1gx2z2            1.011000       3.917189
                          5       1    1gxy3             1.011000       3.034241
                          5       1    1gxy2z            1.011000       6.784770
                          5       1    1gxyz2            1.011000       6.784770
                          5       1    1gxz3             1.011000       3.034241
                          5       1    1gy4              1.011000       1.146835
                          5       1    1gy3z             1.011000       3.034241
                          5       1    1gy2z2            1.011000       3.917189
                          5       1    1gyz3             1.011000       3.034241
                          5       1    1gz4              1.011000       1.146835

     RI Auxiliary Basis Set                                        cc-pVQZ-RIFIT

       Number of orbital shell sets:                                          30
       Number of orbital shells:                                              30
       Number of primitive Cartesian functions:                               30
       Number of Cartesian basis functions:                                  181
       Number of spherical basis functions:                                  132
       Norm type:                                                              2

       Normalised Cartesian orbitals:

                        Set   Shell   Orbital            Exponent    Coefficient

                          1       1    1px               0.245452       0.246262
                          1       1    1py               0.245452       0.246262
                          1       1    1pz               0.245452       0.246262

                          2       1    1s                0.249261       0.251421

                          3       1    1fx3              0.348633       0.137494
                          3       1    1fx2y             0.348633       0.307445
                          3       1    1fx2z             0.348633       0.307445
                          3       1    1fxy2             0.348633       0.307445
                          3       1    1fxyz             0.348633       0.532510
                          3       1    1fxz2             0.348633       0.307445
                          3       1    1fy3              0.348633       0.137494
                          3       1    1fy2z             0.348633       0.307445
                          3       1    1fyz2             0.348633       0.307445
                          3       1    1fz3              0.348633       0.137494

                          4       1    1dx2              0.352145       0.264955
                          4       1    1dxy              0.352145       0.458916
                          4       1    1dxz              0.352145       0.458916
                          4       1    1dy2              0.352145       0.264955
                          4       1    1dyz              0.352145       0.458916
                          4       1    1dz2              0.352145       0.264955

                          5       1    1s                0.489646       0.417178

                          6       1    1px               0.517168       0.625144
                          6       1    1py               0.517168       0.625144
                          6       1    1pz               0.517168       0.625144

                          7       1    1dx2              0.599456       0.672178
                          7       1    1dxy              0.599456       1.164246
                          7       1    1dxz              0.599456       1.164246
                          7       1    1dy2              0.599456       0.672178
                          7       1    1dyz              0.599456       1.164246
                          7       1    1dz2              0.599456       0.672178

                          8       1    1gx4              0.713257       0.439402
                          8       1    1gx3y             0.713257       1.162547
                          8       1    1gx3z             0.713257       1.162547
                          8       1    1gx2y2            0.713257       1.500842
                          8       1    1gx2yz            0.713257       2.599535
                          8       1    1gx2z2            0.713257       1.500842
                          8       1    1gxy3             0.713257       1.162547
                          8       1    1gxy2z            0.713257       2.599535
                          8       1    1gxyz2            0.713257       2.599535
                          8       1    1gxz3             0.713257       1.162547
                          8       1    1gy4              0.713257       0.439402
                          8       1    1gy3z             0.713257       1.162547
                          8       1    1gy2z2            0.713257       1.500842
                          8       1    1gyz3             0.713257       1.162547
                          8       1    1gz4              0.713257       0.439402

                          9       1    1fx3              0.729795       0.724697
                          9       1    1fx2y             0.729795       1.620471
                          9       1    1fx2z             0.729795       1.620471
                          9       1    1fxy2             0.729795       1.620471
                          9       1    1fxyz             0.729795       2.806738
                          9       1    1fxz2             0.729795       1.620471
                          9       1    1fy3              0.729795       0.724697
                          9       1    1fy2z             0.729795       1.620471
                          9       1    1fyz2             0.729795       1.620471
                          9       1    1fz3              0.729795       0.724697

                         10       1    1s                0.872371       0.643333

                         11       1    1dx2              1.031012       1.736286
                         11       1    1dxy              1.031012       3.007336
                         11       1    1dxz              1.031012       3.007336
                         11       1    1dy2              1.031012       1.736286
                         11       1    1dyz              1.031012       3.007336
                         11       1    1dz2              1.031012       1.736286

                         12       1    1px               1.053382       1.521151
                         12       1    1py               1.053382       1.521151
                         12       1    1pz               1.053382       1.521151

                         13       1    1gx4              1.349558       2.537826
                         13       1    1gx3y             1.349558       6.714456
                         13       1    1gx3z             1.349558       6.714456
                         13       1    1gx2y2            1.349558       8.668326
                         13       1    1gx2yz            1.349558      15.013981
                         13       1    1gx2z2            1.349558       8.668326
                         13       1    1gxy3             1.349558       6.714456
                         13       1    1gxy2z            1.349558      15.013981
                         13       1    1gxyz2            1.349558      15.013981
                         13       1    1gxz3             1.349558       6.714456
                         13       1    1gy4              1.349558       2.537826
                         13       1    1gy3z             1.349558       6.714456
                         13       1    1gy2z2            1.349558       8.668326
                         13       1    1gyz3             1.349558       6.714456
                         13       1    1gz4              1.349558       2.537826

                         14       1    1hx5              1.486936       2.693359
                         14       1    1hx4y             1.486936       8.080076
                         14       1    1hx4z             1.486936       8.080076
                         14       1    1hx3y2            1.486936      12.342519
                         14       1    1hx3yz            1.486936      21.377871
                         14       1    1hx3z2            1.486936      12.342519
                         14       1    1hx2y3            1.486936      12.342519
                         14       1    1hx2y2z           1.486936      27.598712
                         14       1    1hx2yz2           1.486936      27.598712
                         14       1    1hx2z3            1.486936      12.342519
                         14       1    1hxy4             1.486936       8.080076
                         14       1    1hxy3z            1.486936      21.377871
                         14       1    1hxy2z2           1.486936      27.598712
                         14       1    1hxyz3            1.486936      21.377871
                         14       1    1hxz4             1.486936       8.080076
                         14       1    1hy5              1.486936       2.693359
                         14       1    1hy4z             1.486936       8.080076
                         14       1    1hy3z2            1.486936      12.342519
                         14       1    1hy2z3            1.486936      12.342519
                         14       1    1hyz4             1.486936       8.080076
                         14       1    1hz5              1.486936       2.693359

                         15       1    1s                1.639209       1.032490

                         16       1    1px               1.688444       2.743459
                         16       1    1py               1.688444       2.743459
                         16       1    1pz               1.688444       2.743459

                         17       1    1fx3              1.738978       5.112301
                         17       1    1fx2y             1.738978      11.431452
                         17       1    1fx2z             1.738978      11.431452
                         17       1    1fxy2             1.738978      11.431452
                         17       1    1fxyz             1.738978      19.799856
                         17       1    1fxz2             1.738978      11.431452
                         17       1    1fy3              1.738978       5.112301
                         17       1    1fy2z             1.738978      11.431452
                         17       1    1fyz2             1.738978      11.431452
                         17       1    1fz3              1.738978       5.112301

                         18       1    1dx2              2.204215       6.563024
                         18       1    1dxy              2.204215      11.367491
                         18       1    1dxz              2.204215      11.367491
                         18       1    1dy2              2.204215       6.563024
                         18       1    1dyz              2.204215      11.367491
                         18       1    1dz2              2.204215       6.563024

                         19       1    1fx3              2.263014       9.246997
                         19       1    1fx2y             2.263014      20.676914
                         19       1    1fx2z             2.263014      20.676914
                         19       1    1fxy2             2.263014      20.676914
                         19       1    1fxyz             2.263014      35.813466
                         19       1    1fxz2             2.263014      20.676914
                         19       1    1fy3              2.263014       9.246997
                         19       1    1fy2z             2.263014      20.676914
                         19       1    1fyz2             2.263014      20.676914
                         19       1    1fz3              2.263014       9.246997

                         20       1    1gx4              2.812776      19.123049
                         20       1    1gx3y             2.812776      50.594833
                         20       1    1gx3z             2.812776      50.594833
                         20       1    1gx2y2            2.812776      65.317648
                         20       1    1gx2yz            2.812776     113.133486
                         20       1    1gx2z2            2.812776      65.317648
                         20       1    1gxy3             2.812776      50.594833
                         20       1    1gxy2z            2.812776     113.133486
                         20       1    1gxyz2            2.812776     113.133486
                         20       1    1gxz3             2.812776      50.594833
                         20       1    1gy4              2.812776      19.123049
                         20       1    1gy3z             2.812776      50.594833
                         20       1    1gy2z2            2.812776      65.317648
                         20       1    1gyz3             2.812776      50.594833
                         20       1    1gz4              2.812776      19.123049

                         21       1    1px               3.590642       7.045394
                         21       1    1py               3.590642       7.045394
                         21       1    1pz               3.590642       7.045394

                         22       1    1s                4.179168       2.083183

                         23       1    1fx3              5.448411      66.766969
                         23       1    1fx2y             5.448411     149.295482
                         23       1    1fx2z             5.448411     149.295482
                         23       1    1fxy2             5.448411     149.295482
                         23       1    1fxyz             5.448411     258.587361
                         23       1    1fxz2             5.448411     149.295482
                         23       1    1fy3              5.448411      66.766969
                         23       1    1fy2z             5.448411     149.295482
                         23       1    1fyz2             5.448411     149.295482
                         23       1    1fz3              5.448411      66.766969

                         24       1    1dx2              5.640287      33.977119
                         24       1    1dxy              5.640287      58.850096
                         24       1    1dxz              5.640287      58.850096
                         24       1    1dy2              5.640287      33.977119
                         24       1    1dyz              5.640287      58.850096
                         24       1    1dz2              5.640287      33.977119

                         25       1    1s                9.171527       3.756136

                         26       1    1px              12.325982      32.920544
                         26       1    1py              12.325982      32.920544
                         26       1    1pz              12.325982      32.920544

                         27       1    1dx2             16.935434     232.703555
                         27       1    1dxy             16.935434     403.054381
                         27       1    1dxz             16.935434     403.054381
                         27       1    1dy2             16.935434     232.703555
                         27       1    1dyz             16.935434     403.054381
                         27       1    1dz2             16.935434     232.703555

                         28       1    1s               47.118566      12.817524

                         29       1    1px              49.862265     188.866569
                         29       1    1py              49.862265     188.866569
                         29       1    1pz              49.862265     188.866569

                         30       1    1s              221.309708      40.894080

       Atomic covalent radius [Angstrom]:                                  0.770

       Atomic van der Waals radius [Angstrom]:                             1.700

     The atoms of this atomic kind are PAW atoms (GAPW):
       Hard Gaussian function radius:                                      1.512
       Rho0 radius:                                                        1.512
       Maximum GTO radius used for PAW projector construction:            24.566

     GAPW Soft Basis Set                                            cc-pVQZ_soft

       Number of orbital shell sets:                                           5
       Number of orbital shells:                                              15
       Number of primitive Cartesian functions:                               14
       Number of Cartesian basis functions:                                   70
       Number of spherical basis functions:                                   55
       Norm type:                                                              2

       Normalised Cartesian orbitals:

                        Set   Shell   Orbital            Exponent    Coefficient

                          1       1    1px               2.368000       0.000000
                                                         0.813200       1.100745
                                                         0.289000       0.000000
                                                         0.100700       0.000000
                          1       1    1py               2.368000       0.000000
                                                         0.813200       1.100745
                                                         0.289000       0.000000
                                                         0.100700       0.000000
                          1       1    1pz               2.368000       0.000000
                                                         0.813200       1.100745
                                                         0.289000       0.000000
                                                         0.100700       0.000000

                          1       2    2px               2.368000       0.596637
                                                         0.813200       0.376620
                                                         0.289000       0.140105
                                                         0.100700       0.020217
                          1       2    2py               2.368000       0.596637
                                                         0.813200       0.376620
                                                         0.289000       0.140105
                                                         0.100700       0.020217
                          1       2    2pz               2.368000       0.596637
                                                         0.813200       0.376620
                                                         0.289000       0.140105
                                                         0.100700       0.020217

                          1       3    3px               2.368000       0.000000
                                                         0.813200       0.000000
                                                         0.289000       0.302039
                                                         0.100700       0.000000
                          1       3    3py               2.368000       0.000000
                                                         0.813200       0.000000
                                                         0.289000       0.302039
                                                         0.100700       0.000000
                          1       3    3pz               2.368000       0.000000
                                                         0.813200       0.000000
                                                         0.289000       0.302039
                                                         0.100700       0.000000

                          1       4    4px               2.368000       0.000000
                                                         0.813200       0.000000
                                                         0.289000       0.000000
                                                         0.100700       0.080859
                          1       4    4py               2.368000       0.000000
                                                         0.813200       0.000000
                                                         0.289000       0.000000
                                                         0.100700       0.080859
                          1       4    4pz               2.368000       0.000000
                                                         0.813200       0.000000
                                                         0.289000       0.000000
                                                         0.100700       0.080859

                          2       1    1s                2.530000       0.310322
                                                         0.735500       0.008997
                                                         0.290500      -0.000870
                                                         0.111100       0.000134

                          2       2    2s                2.530000       0.000000
                                                         0.735500       0.566040
                                                         0.290500       0.000000
                                                         0.111100       0.000000

                          2       3    3s                2.530000       0.000000
                                                         0.735500       0.000000
                                                         0.290500       0.282013
                                                         0.111100       0.000000

                          2       4    4s                2.530000      -0.168734
                                                         0.735500       0.154985
                                                         0.290500       0.165404
                                                         0.111100       0.039147

                          2       5    5s                2.530000       0.000000
                                                         0.735500       0.000000
                                                         0.290500       0.000000
                                                         0.111100       0.137150

                          3       1    1dx2              1.848000       4.821009
                                                         0.649000       0.000000
                                                         0.228000       0.000000
                          3       1    1dxy              1.848000       8.350232
                                                         0.649000       0.000000
                                                         0.228000       0.000000
                          3       1    1dxz              1.848000       8.350232
                                                         0.649000       0.000000
                                                         0.228000       0.000000
                          3       1    1dy2              1.848000       4.821009
                                                         0.649000       0.000000
                                                         0.228000       0.000000
                          3       1    1dyz              1.848000       8.350232
                                                         0.649000       0.000000
                                                         0.228000       0.000000
                          3       1    1dz2              1.848000       4.821009
                                                         0.649000       0.000000
                                                         0.228000       0.000000

                          3       2    2dx2              1.848000       0.000000
                                                         0.649000       0.772392
                                                         0.228000       0.000000
                          3       2    2dxy              1.848000       0.000000
                                                         0.649000       1.337822
                                                         0.228000       0.000000
                          3       2    2dxz              1.848000       0.000000
                                                         0.649000       1.337822
                                                         0.228000       0.000000
                          3       2    2dy2              1.848000       0.000000
                                                         0.649000       0.772392
                                                         0.228000       0.000000
                          3       2    2dyz              1.848000       0.000000
                                                         0.649000       1.337822
                                                         0.228000       0.000000
                          3       2    2dz2              1.848000       0.000000
                                                         0.649000       0.772392
                                                         0.228000       0.000000

                          3       3    3dx2              1.848000       0.000000
                                                         0.649000       0.000000
                                                         0.228000       0.123821
                          3       3    3dxy              1.848000       0.000000
                                                         0.649000       0.000000
                                                         0.228000       0.214465
                          3       3    3dxz              1.848000       0.000000
                                                         0.649000       0.000000
                                                         0.228000       0.214465
                          3       3    3dy2              1.848000       0.000000
                                                         0.649000       0.000000
                                                         0.228000       0.123821
                          3       3    3dyz              1.848000       0.000000
                                                         0.649000       0.000000
                                                         0.228000       0.214465
                          3       3    3dz2              1.848000       0.000000
                                                         0.649000       0.000000
                                                         0.228000       0.123821

                          4       1    1fx3              1.419000       3.235302
                                                         0.485000       0.000000
                          4       1    1fx2y             1.419000       7.234355
                                                         0.485000       0.000000
                          4       1    1fx2z             1.419000       7.234355
                                                         0.485000       0.000000
                          4       1    1fxy2             1.419000       7.234355
                                                         0.485000       0.000000
                          4       1    1fxyz             1.419000      12.530271
                                                         0.485000       0.000000
                          4       1    1fxz2             1.419000       7.234355
                                                         0.485000       0.000000
                          4       1    1fy3              1.419000       3.235302
                                                         0.485000       0.000000
                          4       1    1fy2z             1.419000       7.234355
                                                         0.485000       0.000000
                          4       1    1fyz2             1.419000       7.234355
                                                         0.485000       0.000000
                          4       1    1fz3              1.419000       3.235302
                                                         0.485000       0.000000

                          4       2    2fx3              1.419000       0.000000
                                                         0.485000       0.288984
                          4       2    2fx2y             1.419000       0.000000
                                                         0.485000       0.646187
                          4       2    2fx2z             1.419000       0.000000
                                                         0.485000       0.646187
                          4       2    2fxy2             1.419000       0.000000
                                                         0.485000       0.646187
                          4       2    2fxyz             1.419000       0.000000
                                                         0.485000       1.119229
                          4       2    2fxz2             1.419000       0.000000
                                                         0.485000       0.646187
                          4       2    2fy3              1.419000       0.000000
                                                         0.485000       0.288984
                          4       2    2fy2z             1.419000       0.000000
                                                         0.485000       0.646187
                          4       2    2fyz2             1.419000       0.000000
                                                         0.485000       0.646187
                          4       2    2fz3              1.419000       0.000000
                                                         0.485000       0.288984

                          5       1    1gx4              1.011000       1.146835
                          5       1    1gx3y             1.011000       3.034241
                          5       1    1gx3z             1.011000       3.034241
                          5       1    1gx2y2            1.011000       3.917189
                          5       1    1gx2yz            1.011000       6.784770
                          5       1    1gx2z2            1.011000       3.917189
                          5       1    1gxy3             1.011000       3.034241
                          5       1    1gxy2z            1.011000       6.784770
                          5       1    1gxyz2            1.011000       6.784770
                          5       1    1gxz3             1.011000       3.034241
                          5       1    1gy4              1.011000       1.146835
                          5       1    1gy3z             1.011000       3.034241
                          5       1    1gy2z2            1.011000       3.917189
                          5       1    1gyz3             1.011000       3.034241
                          5       1    1gz4              1.011000       1.146835

     AE Potential information for                                            ALL

       Description:                                       All-electron potential
                                          Krack, Parrinello, PCCP 2, 2105 (2000)

       Gaussian exponent of the core charge distribution:               4.109048
       Electronic configuration (s p d ...):                           4   2   0

  2. Atomic kind: H                                     Number of atoms:       4

     Orbital Basis Set                                                   cc-pVQZ

       Number of orbital shell sets:                                           4
       Number of orbital shells:                                              10
       Number of primitive Cartesian functions:                               12
       Number of Cartesian basis functions:                                   35
       Number of spherical basis functions:                                   30
       Norm type:                                                              2

       Normalised Cartesian orbitals:

                        Set   Shell   Orbital            Exponent    Coefficient

                          1       1    1s               82.640000       0.000000
                                                        12.410000       0.000000
                                                         2.824000       0.000000
                                                         0.797700       0.601575
                                                         0.258100       0.000000
                                                         0.089890       0.000000

                          1       2    2s               82.640000       0.000000
                                                        12.410000       0.000000
                                                         2.824000       0.000000
                                                         0.797700       0.000000
                                                         0.258100       0.258078
                                                         0.089890       0.000000

                          1       3    3s               82.640000       0.039186
                                                        12.410000       0.072302
                                                         2.824000       0.117344
                                                         0.797700       0.154530
                                                         0.258100       0.128360
                                                         0.089890       0.034648

                          1       4    4s               82.640000       0.000000
                                                        12.410000       0.000000
                                                         2.824000       0.000000
                                                         0.797700       0.000000
                                                         0.258100       0.000000
                                                         0.089890       0.117002

                          2       1    1px               2.292000       4.019836
                                                         0.838000       0.000000
                                                         0.292000       0.000000
                          2       1    1py               2.292000       4.019836
                                                         0.838000       0.000000
                                                         0.292000       0.000000
                          2       1    1pz               2.292000       4.019836
                                                         0.838000       0.000000
                                                         0.292000       0.000000

                          2       2    2px               2.292000       0.000000
                                                         0.838000       1.142865
                                                         0.292000       0.000000
                          2       2    2py               2.292000       0.000000
                                                         0.838000       1.142865
                                                         0.292000       0.000000
                          2       2    2pz               2.292000       0.000000
                                                         0.838000       1.142865
                                                         0.292000       0.000000

                          2       3    3px               2.292000       0.000000
                                                         0.838000       0.000000
                                                         0.292000       0.305963
                          2       3    3py               2.292000       0.000000
                                                         0.838000       0.000000
                                                         0.292000       0.305963
                          2       3    3pz               2.292000       0.000000
                                                         0.838000       0.000000
                                                         0.292000       0.305963

                          3       1    1dx2              2.062000       5.840024
                                                         0.662000       0.000000
                          3       1    1dxy              2.062000      10.115218
                                                         0.662000       0.000000
                          3       1    1dxz              2.062000      10.115218
                                                         0.662000       0.000000
                          3       1    1dy2              2.062000       5.840024
                                                         0.662000       0.000000
                          3       1    1dyz              2.062000      10.115218
                                                         0.662000       0.000000
                          3       1    1dz2              2.062000       5.840024
                                                         0.662000       0.000000

                          3       2    2dx2              2.062000       0.000000
                                                         0.662000       0.799670
                          3       2    2dxy              2.062000       0.000000
                                                         0.662000       1.385069
                          3       2    2dxz              2.062000       0.000000
                                                         0.662000       1.385069
                          3       2    2dy2              2.062000       0.000000
                                                         0.662000       0.799670
                          3       2    2dyz              2.062000       0.000000
                                                         0.662000       1.385069
                          3       2    2dz2              2.062000       0.000000
                                                         0.662000       0.799670

                          4       1    1fx3              1.397000       3.123535
                          4       1    1fx2y             1.397000       6.984436
                          4       1    1fx2z             1.397000       6.984436
                          4       1    1fxy2             1.397000       6.984436
                          4       1    1fxyz             1.397000      12.097399
                          4       1    1fxz2             1.397000       6.984436
                          4       1    1fy3              1.397000       3.123535
                          4       1    1fy2z             1.397000       6.984436
                          4       1    1fyz2             1.397000       6.984436
                          4       1    1fz3              1.397000       3.123535

     RI Auxiliary Basis Set                                        cc-pVQZ-RIFIT

       Number of orbital shell sets:                                          15
       Number of orbital shells:                                              15
       Number of primitive Cartesian functions:                               15
       Number of Cartesian basis functions:                                   70
       Number of spherical basis functions:                                   55
       Norm type:                                                              2

       Normalised Cartesian orbitals:

                        Set   Shell   Orbital            Exponent    Coefficient

                          1       1    1px               0.224508       0.220283
                          1       1    1py               0.224508       0.220283
                          1       1    1pz               0.224508       0.220283

                          2       1    1s                0.227635       0.234877

                          3       1    1s                0.433111       0.380504

                          4       1    1px               0.516293       0.623822
                          4       1    1py               0.516293       0.623822
                          4       1    1pz               0.516293       0.623822

                          5       1    1dx2              0.527598       0.537577
                          5       1    1dxy              0.527598       0.931110
                          5       1    1dxz              0.527598       0.931110
                          5       1    1dy2              0.527598       0.537577
                          5       1    1dyz              0.527598       0.931110
                          5       1    1dz2              0.527598       0.537577

                          6       1    1fx3              0.671931       0.601776
                          6       1    1fx2y             0.671931       1.345612
                          6       1    1fx2z             0.671931       1.345612
                          6       1    1fxy2             0.671931       1.345612
                          6       1    1fxyz             0.671931       2.330669
                          6       1    1fxz2             0.671931       1.345612
                          6       1    1fy3              0.671931       0.601776
                          6       1    1fy2z             0.671931       1.345612
                          6       1    1fyz2             0.671931       1.345612
                          6       1    1fz3              0.671931       0.601776

                          7       1    1dx2              1.017710       1.697272
                          7       1    1dxy              1.017710       2.939762
                          7       1    1dxz              1.017710       2.939762
                          7       1    1dy2              1.017710       1.697272
                          7       1    1dyz              1.017710       2.939762
                          7       1    1dz2              1.017710       1.697272

                          8       1    1s                1.182483       0.808177

                          9       1    1px               1.228568       1.843695
                          9       1    1py               1.228568       1.843695
                          9       1    1pz               1.228568       1.843695

                         10       1    1fx3              1.896433       6.213178
                         10       1    1fx2y             1.896433      13.893089
                         10       1    1fx2z             1.896433      13.893089
                         10       1    1fxy2             1.896433      13.893089
                         10       1    1fxyz             1.896433      24.063536
                         10       1    1fxz2             1.896433      13.893089
                         10       1    1fy3              1.896433       6.213178
                         10       1    1fy2z             1.896433      13.893089
                         10       1    1fyz2             1.896433      13.893089
                         10       1    1fz3              1.896433       6.213178

                         11       1    1gx4              2.130883       8.911979
                         11       1    1gx3y             2.130883      23.578879
                         11       1    1gx3z             2.130883      23.578879
                         11       1    1gx2y2            2.130883      30.440202
                         11       1    1gx2yz            2.130883      52.723977
                         11       1    1gx2z2            2.130883      30.440202
                         11       1    1gxy3             2.130883      23.578879
                         11       1    1gxy2z            2.130883      52.723977
                         11       1    1gxyz2            2.130883      52.723977
                         11       1    1gxz3             2.130883      23.578879
                         11       1    1gy4              2.130883       8.911979
                         11       1    1gy3z             2.130883      23.578879
                         11       1    1gy2z2            2.130883      30.440202
                         11       1    1gyz3             2.130883      23.578879
[...]
 grid_integrate_task_list            98 10.0    0.137    4.691    0.137    4.691
 put_rho0_on_grid                    98  9.0    0.221    0.255    4.490    4.567
 cp_fm_syevd                        103  7.0    0.001    0.001    4.408    4.414
 cp_fm_redistribute_end             103  8.0    2.181    4.284    2.188    4.291
 cp_fm_syevd_base                   103  8.0    2.100    4.203    2.100    4.203
 mp_waitall_1                    101542 12.0    3.345    4.190    3.345    4.190
 calc_screening_functions             1 10.0    3.155    3.369    3.820    4.032
 qs_scf_new_mos                      97  5.0    0.001    0.001    3.901    3.919
 integrate_vhg0_rspace               98  8.0    0.167    0.196    3.581    3.807
 eigensolver_symm                    98  6.0    0.003    0.003    3.264    3.269
 calculate_vxc_atom                  98  8.0    0.037    0.445    3.238    3.238
 mp2_ri_gpw_compute_in                1  5.0    0.001    0.003    2.921    2.921
 mp2_ri_gpw_compute_in_loop           1  6.0    0.000    0.000    2.900    2.901
 contract_B_L                         4  7.0    0.004    0.005    2.701    2.847
 gaVxcgb_GC                          97  9.0    0.048    2.721    0.048    2.721
 transfer_rs2pw_90                   98  9.0    0.246    0.303    1.584    2.443
 calculate_rho_atom                 196  9.0    0.629    2.321    0.629    2.321
 mp_alltoall_d45                     99 10.0    1.113    2.311    1.113    2.311
 transfer_pw2rs_30                   98 12.0    0.899    0.975    2.035    2.193
 transfer_rs2pw_30                   98  9.0    0.929    0.971    2.108    2.142
 dbt_total                            8  8.0    0.000    0.000    2.099    2.099
 mp_sum_dv                        19543 11.1    1.861    2.007    1.861    2.007
 dbt_contract                         4  9.0    0.001    0.001    1.446    1.908
 fft_wrap_pw1pw2_90                 196 10.5    0.034    0.049    0.854    1.890
 mp_cart_create                     464 10.0    1.540    1.707    1.540    1.708
 cp2k_distribution_to_z_slices       98  9.0    0.449    0.496    1.101    1.696
 dbt_pgrid_create_expert             84 10.8    0.000    0.000    1.510    1.677
 xc_functional_eval                 291 10.9    0.001    0.002    1.372    1.676
 pbe_lda_eval                       291 11.9    1.371    1.676    1.371    1.676
 mp_isendrecv_dv                  84280 12.0    0.769    1.641    0.769    1.641
 mp_sendrecv_dv                   42140 10.0    1.571    1.630    1.571    1.630
 mp_sum_dm                         2160  7.6    1.286    1.520    1.286    1.520
 start_bse_calculation                1  7.0    0.000    0.000    1.485    1.485
 transfer_pw2rs_90                   98 12.0    0.248    0.278    1.209    1.471
 pw_scatter_p                      1072 12.1    1.365    1.425    1.365    1.425
 powell_optimize                 475595 11.0    1.182    1.411    1.182    1.411
 integrate_four_center_getP          98 10.0    0.040    0.044    1.356    1.364
 rs_grid_zero                       492 11.2    1.272    1.306    1.272    1.306
 pw_gather_p                        977 11.8    1.106    1.263    1.106    1.263
 create_qs_kind_set                   1  2.0    0.000    0.000    1.241    1.241
 read_qs_kind                         2  3.0    0.693    0.711    1.241    1.241
 integrate_four_center_dist_KS       98 10.0    0.038    0.043    1.188    1.191
 dbt_copy                            12 10.2    0.000    0.001    0.106    1.184
 dbt_reshape                          8 11.8    0.015    0.021    0.077    1.155
 mp_waitall_2                        50 15.6    0.061    1.135    0.061    1.135
 dbt_communicate_buffer               8 12.8    0.002    0.002    0.054    1.129
 Vh_1c_gg_integrals                  98  8.0    0.012    0.255    0.353    1.058
 pw_derive                          876 11.3    0.939    1.029    0.939    1.029
 dbt_remap                            8 10.0    0.002    0.003    0.995    0.999
 dbt_nd_mp_comm                       8 11.0    0.000    0.000    0.939    0.960
 pw_integral_ab_c1d_c1d_gs           98  9.0    0.317    0.321    0.441    0.896
 qs_energies_init_hamiltonians        1  3.0    0.000    0.000    0.891    0.891
 build_core_hamiltonian_matrix        1  4.0    0.000    0.000    0.879    0.879
 overlap_condnum                      1  5.0    0.000    0.000    0.875    0.877
 calc_pair_dist_radii                 1 10.0    0.252    0.274    0.770    0.874
 mp_max_i                           622  3.2    0.231    0.839    0.231    0.839
 arnoldi_conjugate_gradient           5  6.0    0.019    0.022    0.806    0.806
 mp_irecv_dm3                      3540 11.5    0.260    0.760    0.260    0.760
 pw_copy                           1465 10.6    0.699    0.759    0.699    0.759
 mp2_eri_3c_integrate                 1  7.0    0.002    0.003    0.155    0.702
 integrate_set_3c                  1650  8.0    0.139    0.630    0.154    0.699
 diagonalize_C                        1  8.0    0.000    0.000    0.690    0.691
 create_hermitian_form_of_ABBA        1  8.0    0.000    0.000    0.686    0.689
 transfer_pw2rs_10                   98 12.0    0.235    0.290    0.635    0.688
 cp_fm_power                          2  7.5    0.008    0.010    0.681    0.684
 transfer_rs2pw_10                   98  9.0    0.239    0.255    0.630    0.646
 pw_poisson_set                      99  8.9    0.003    0.004    0.586    0.599
 pw_poisson_rebuild                  98  9.0    0.000    0.000    0.573    0.599
 ps_wavelet_create                    1 10.0    0.000    0.000    0.573    0.599
 RS_z_slice_distribution              1 11.0    0.501    0.586    0.573    0.599
 rpa_num_int_RPA_matrix_operati     100  7.0    0.001    0.003    0.593    0.594
 compute_vec_Sigma_x_minus_vxc_       1  4.0    0.000    0.000    0.576    0.576
 mp_isend_dm3                      3540 11.5    0.216    0.567    0.216    0.567
 parser_read_line                147134  4.0    0.052    0.060    0.547    0.556
 pw_copy_to_array                   977 11.8    0.388    0.515    0.388    0.515
 fft_wrap_pw1pw2_30                 196 10.5    0.006    0.006    0.338    0.514
 dbcsr_sym_matrix_vector_mult      2748  7.0    0.043    0.046    0.370    0.507
 parser_read_line_low               158  5.0    0.049    0.215    0.496    0.504
 mp_rank_compare                   2049 12.9    0.485    0.500    0.485    0.500
 calculate_dm_sparse                 97  6.0    0.001    0.001    0.455    0.478
 cp_dbcsr_plus_fm_fm_t               97  7.0    0.002    0.002    0.454    0.476
 broadcast_input_information        158  6.0    0.120    0.134    0.447    0.458
 mp_alltoall_z11v                   392 13.5    0.394    0.456    0.394    0.456
 dbt_tas_multiply                     8 11.5    0.000    0.000    0.416    0.416
 mp_sum_i                            21  9.7    0.240    0.414    0.240    0.414
 restraint_control                    1  2.0    0.000    0.000    0.239    0.413
 mp2_main_alloc_hfx                   1  4.0    0.175    0.413    0.175    0.413
 dbt_tas_total                        8 12.5    0.002    0.005    0.412    0.412
 update_ks_atom                      98  8.0    0.013    0.048    0.323    0.385
 pw_copy_from_array                1072 12.1    0.278    0.380    0.278    0.380
 pw_axpy                            975  9.3    0.322    0.375    0.322    0.375
 mp_sum_l                          1050  6.4    0.269    0.361    0.269    0.361
 fft_wrap_pw1pw2_10                 196 10.5    0.002    0.002    0.349    0.359
 mp_isend_dv                      30536 11.8    0.208    0.353    0.208    0.353
 calc_mat_Q                         100  8.0    0.000    0.000    0.338    0.342
 cp_fm_cholesky_invert              101  8.0    0.327    0.339    0.327    0.339
 dbcsr_multiply_generic             126  8.1    0.007    0.008    0.318    0.338
 mp_bcast_dm                       1372  9.0    0.310    0.338    0.310    0.338
 integrate_four_center_load          98 10.0    0.000    0.001    0.248    0.333
 hfx_load_balance                     1 11.0    0.000    0.000    0.247    0.333
 contract_S_to_Q                    100  9.0    0.001    0.001    0.326    0.331
 calculate_rho_atom_coeff            98  6.0    0.019    0.061    0.315    0.316
 hfx_load_balance_range               1 12.0    0.000    0.000    0.226    0.311
 xz_to_yz                           196 11.0    0.011    0.013    0.259    0.306
 init_scf_run                         1  3.0    0.000    0.000    0.299    0.300
 dbcsr_complete_redistribute        318  8.4    0.018    0.026    0.282    0.288
 scf_env_initial_rho_setup            1  4.0    0.000    0.000    0.257    0.258
 copy_dbcsr_to_fm                   120  6.3    0.003    0.003    0.241    0.247
 dbcsr_add_d                       4205  7.0    0.004    0.005    0.034    0.245
 cp_fm_cholesky_decompose           102  9.0    0.241    0.244    0.241    0.244
 compute_Erpa_by_freq_int           100  8.0    0.001    0.001    0.240    0.241
 dbt_tas_dbm                          8 13.5    0.000    0.000    0.241    0.241
 dbcsr_add_anytype                 4205  8.0    0.005    0.031    0.030    0.240
 offload_free_buffer                106  8.5    0.018    0.240    0.018    0.240
 dbm_multiply                         8 15.5    0.165    0.235    0.165    0.235
 mp_bcast_i_src                     632  7.0    0.155    0.227    0.155    0.227
 cube_transpose_2                   196 11.0    0.004    0.004    0.076    0.226
 pw_zero                            584 10.3    0.191    0.217    0.191    0.217
 dbt_tas_mm_1N                        4 14.5    0.000    0.000    0.145    0.214
 mp_bcast_am_src                    158  7.0    0.154    0.182    0.169    0.198
 dbcsr_rep_row_to_rep_col_vec      2748  8.0    0.013    0.018    0.070    0.192
 dbcsr_col_vec_to_rep_row          2748  8.0    0.019    0.024    0.098    0.188
 yz_to_xz                           196 14.0    0.018    0.021    0.165    0.182
 qs_init_subsys                       1  2.0    0.004    0.005    0.177    0.178
 dbcsr_finalize                    6257 10.8    0.012    0.058    0.040    0.173
 dbt_tas_estimate_result_nze          4 12.0    0.002    0.003    0.171    0.171
 copy_fm_to_dbcsr                   198  8.0    0.001    0.001    0.165    0.170
 multiply_cannon                    126  9.1    0.015    0.015    0.145    0.164
 qs_env_setup                         1  3.0    0.000    0.000    0.149    0.153
 qs_env_rebuild_pw_env                2  3.5    0.000    0.000    0.147    0.152
 pw_env_rebuild                       1  5.0    0.001    0.001    0.147    0.152
 calculate_rho0_atom                196  9.0    0.131    0.135    0.131    0.135
 make_m2s                           252  9.1    0.007    0.008    0.126    0.134
 pw_grid_setup                        4  6.0    0.000    0.000    0.125    0.129
 pw_grid_setup_internal               4  7.0    0.003    0.004    0.125    0.129
 multiply_cannon_loop               126 10.1    0.023    0.025    0.108    0.128
 cp_fm_redistribute_start           103  8.0    0.095    0.097    0.120    0.127
 cp_fm_to_fm_submat_general         112 10.1    0.102    0.120    0.102    0.120
 dbcsr_desymmetrize_deep            122  7.3    0.004    0.006    0.112    0.118
 mp_bcast_dv                       2851  9.0    0.043    0.111    0.043    0.111
 scale_and_distribute               196 10.0    0.094    0.107    0.094    0.107
 mp_alltoall_i11v                  1076  9.3    0.096    0.101    0.096    0.101
 mp_alltoall_i22                    440  9.1    0.083    0.093    0.083    0.093
 pw_scale                           389  9.5    0.067    0.088    0.067    0.088
 cp_fm_symm                          98  7.0    0.080    0.086    0.080    0.086
 dbt_tas_replicate                    8 13.5    0.033    0.049    0.080    0.083
 dbcsr_merge_all                   5135 11.6    0.015    0.066    0.021    0.082
 dbcsr_iterator_start             35374  8.8    0.043    0.064    0.050    0.076
 dbcsr_copy                       11857  7.6    0.042    0.047    0.068    0.075
 make_images                        252 10.1    0.015    0.017    0.067    0.073
 pw_grid_sort                         4  8.0    0.043    0.045    0.067    0.071
 abc_contract                      1650  9.0    0.015    0.068    0.015    0.068
 hybrid_alltoall_any                374 10.8    0.009    0.010    0.051    0.060
 vxc_of_r_new                       194  9.0    0.000    0.009    0.002    0.058
 mp_irecv_dv                      30416 11.8    0.034    0.057    0.034    0.057
 scf_post_calculation_gpw             1  3.0    0.000    0.000    0.057    0.057
 postprocess_bse                      1  9.0    0.000    0.000    0.056    0.057
 write_available_results              1  4.0    0.000    0.000    0.056    0.057
 write_mo_free_results                1  5.0    0.003    0.003    0.056    0.057
 rs_scatter_matrices                 98  7.0    0.001    0.002    0.049    0.056
 create_integ_mat                     4  6.0    0.001    0.001    0.052    0.054
 dbcsr_create_new                 15062  9.0    0.040    0.043    0.050    0.053
 dbcsr_sym_matrix_vector_mult_l    2748  8.0    0.011    0.046    0.020    0.053
 array2fm                             4  7.0    0.000    0.000    0.048    0.052
 dbcsr_iterator_stop              35374  8.8    0.031    0.043    0.038    0.051
 mp_maxloc_dv                      1529  1.0    0.043    0.047    0.043    0.047
 dbt_distribution_new_expert         76 10.1    0.001    0.002    0.044    0.047
 mixing_init                          1  5.0    0.041    0.045    0.046    0.046
 dbt_split_blocks_generic            20  8.8    0.010    0.012    0.043    0.044
 multiply_cannon_metrocomm3        3696 11.1    0.006    0.006    0.019    0.044
 mp_comm_split_direct                48 14.5    0.029    0.042    0.029    0.042
 create_A                             1  8.0    0.001    0.001    0.041    0.042
 create_B                             1  8.0    0.000    0.000    0.041    0.042
 mp_bcast_iv                        221  6.3    0.016    0.042    0.016    0.042
 write_mo_set_to_restart             97  5.0    0.002    0.008    0.011    0.042
 mp_cart_rank                    128340 10.3    0.032    0.042    0.032    0.042
 self_consistency_check              97  5.0    0.000    0.000    0.030    0.041
 cp_sm_mix                           97  6.0    0.000    0.002    0.029    0.040
 mp_max_d                            99  6.9    0.029    0.040    0.029    0.040
 dbm_reserve_blocks                  73 14.3    0.035    0.038    0.035    0.038
 dbcsr_crop_matrix                  485 10.0    0.003    0.004    0.035    0.038
 create_fast_col_vec_access        5496  8.0    0.022    0.025    0.034    0.037
 write_mo_set_low                     5  6.0    0.000    0.000    0.010    0.037
 cp_fm_write_unformatted              5  7.0    0.008    0.032    0.009    0.037
 create_fast_row_vec_access        5496  8.0    0.022    0.025    0.034    0.037
 dbt_tas_distribution_new           101 12.0    0.024    0.024    0.034    0.035
 mp2_main_free_hfx                    1  4.0    0.013    0.033    0.013    0.033
 dbt_tas_reshape                     10 13.6    0.000    0.000    0.029    0.031
 multiply_cannon_metrocomm1        3696 11.1    0.004    0.005    0.013    0.030
 cube_transpose_1                   196 14.0    0.003    0.004    0.026    0.030
 dbcsr_work_create                 5815 10.6    0.005    0.019    0.008    0.030
 dbcsr_copy_submatrix               485 11.0    0.004    0.005    0.027    0.029
 mp_send_dv                           5  8.0    0.002    0.029    0.002    0.029
 multiply_cannon_multrec           3696 11.1    0.013    0.028    0.013    0.029
 make_images_sizes                  252 11.1    0.000    0.000    0.026    0.029
 mp_alltoall_i44                    252 12.1    0.026    0.029    0.026    0.029
 array2fm_info                        4  8.0    0.026    0.028    0.027    0.028
 print_transition_amplitudes          1 10.0    0.000    0.000    0.028    0.028
 print_transition_amplitudes_co      50 11.0    0.000    0.000    0.028    0.028
 filter_eigvec_contrib               50 12.0    0.016    0.017    0.027    0.028
 dbt_tas_communicate_buffer          18 15.6    0.003    0.003    0.021    0.027
 sort_shells                          4  9.0    0.024    0.027    0.024    0.027
 multiply_cannon_metrocomm4        3468 11.1    0.010    0.011    0.020    0.026
 dbcsr_work_destroy_all            5815 11.6    0.005    0.019    0.006    0.026
 cp_fm_uplo_to_full                 104  8.0    0.012    0.026    0.012    0.026
 get_multipoles_mo                    1 10.0    0.000    0.000    0.025    0.026
 mp_cart_sub                        246  8.4    0.024    0.025    0.024    0.025
 dbt_tas_reserve_blocks_index        65 13.2    0.001    0.001    0.022    0.025
 multiply_cannon_metrocomm2        3366 11.1    0.010    0.011    0.018    0.025
 cp_fm_syrk                           3  7.0    0.020    0.024    0.020    0.024
 mp_alltoall_i                       41 13.9    0.017    0.024    0.017    0.024
 hirshfeld_integration                1  6.0    0.000    0.002    0.024    0.024
 xc_pw_smooth                        97 10.0    0.000    0.000    0.020    0.024
 init_rho_atom                        1  3.0    0.000    0.001    0.020    0.024
 calculate_hirshfeld_normalizat       1  6.0    0.000    0.002    0.023    0.024
 dbt_create_new                      40  9.5    0.001    0.001    0.022    0.023
 dbcsr_data_release               75338 10.2    0.014    0.022    0.014    0.022
 dbcsr_scale_anytype               4206  9.0    0.008    0.009    0.021    0.022
 make_images_data                   252 11.1    0.003    0.004    0.013    0.021
 dbt_tas_mm_2                         4 14.5    0.000    0.000    0.021    0.021
 create_harmonics_atom                2  4.0    0.017    0.020    0.017    0.020
 fm_general_add_bse                   5 10.2    0.000    0.000    0.017    0.020
 dbt_tas_replicate_communicate_       4 14.5    0.000    0.000    0.013    0.019
 mp_sum_iv                          353  9.5    0.015    0.019    0.015    0.019
 mult_B_with_W                        1  8.0    0.000    0.000    0.017    0.019
 Q_trace_and_add_unit_matrix        100  8.0    0.001    0.001    0.013    0.019
 mp_bcast_av                        765  1.0    0.005    0.007    0.016    0.018
 dbt_tas_create_split                44 13.2    0.000    0.000    0.017    0.018
 dbt_tas_create_split_rows_or_c      44 14.2    0.000    0.000    0.017    0.018
 pw_grid_assign                       4  8.0    0.014    0.017    0.017    0.018
 get_2c_integrals                     1  6.0    0.000    0.000    0.017    0.018
 calc_fm_mat_S_rpa                  100  9.0    0.012    0.018    0.012    0.018
 dbcsr_data_new                   36908 10.8    0.009    0.018    0.009    0.018
 get_fft_scratch                   2050 12.9    0.006    0.016    0.007    0.018
 dbt_reserve_blocks_index            36 10.8    0.001    0.001    0.015    0.017
 dbcsr_set                        11631  8.5    0.010    0.011    0.013    0.017
 dbcsr_destroy                     9470  8.6    0.010    0.011    0.015    0.016
 -------------------------------------------------------------------------------

 The number of warnings for this run is : 1
 
 -------------------------------------------------------------------------------
  **** **** ******  **  PROGRAM ENDED AT                 2025-04-11 17:21:58.051
 ***** ** ***  *** **   PROGRAM RAN ON                              i04r07c03s01
 **    ****   ******    PROGRAM RAN BY                                   di38fab
 ***** **    ** ** **   PROGRAM PROCESS ID                               1962241
  **** **  *******  **  PROGRAM STOPPED IN /hppfs/scratch/04/di38fab/07_MOL_non_
                                           aug/05_MOL_non_aug/05_MOL/W4-11+ALK/a
                                           llene/cc-pVQZ/GW+BSE
