 DBCSR| CPU Multiplication driver                                           XSMM (U)
 DBCSR| Multrec recursion limit                                              512 (U)
 DBCSR| Multiplication stack size                                           1000 (D)
 DBCSR| Maximum elements for images                                    UNLIMITED (U)
 DBCSR| Multiplicative factor virtual images                                   1 (U)
 DBCSR| Use multiplication densification                                       T (D)
 DBCSR| Multiplication size stacks                                             3 (U)
 DBCSR| Use memory pool for CPU allocation                                     F (U)
 DBCSR| Number of 3D layers                                               SINGLE (U)
 DBCSR| Use MPI memory allocation                                              F (U)
 DBCSR| Use RMA algorithm                                                      F (U)
 DBCSR| Use Communication thread                                               T (U)
 DBCSR| Communication thread load                                             60 (D)
 DBCSR| MPI: My process id                                                     0
 DBCSR| MPI: Number of processes                                              32
 DBCSR| OMP: Current number of threads                                         8
 DBCSR| OMP: Max number of threads                                             8
 DBCSR| Split modifier for TAS multiplication algorithm                  1.0E+00 (U)


  **** **** ******  **  PROGRAM STARTED AT               2025-06-23 12:09:28.273
 ***** ** ***  *** **   PROGRAM STARTED ON                              n2cn0172
 **    ****   ******    PROGRAM STARTED BY                              metdyn02
 ***** **    ** ** **   PROGRAM PROCESS ID                                670325
  **** **  *******  **  PROGRAM STARTED IN /scratch/hpc-prf-metdyn/metdyn02_Remi
                                           /10_MOL/05_MOL/aUKBqsEOTmq69kFe5R_nOg
                                           /5k_set_final_qzvp/LEHNIW/mini-SZV/GW
                                           +BSE/RILIM

 CP2K| version string:                 CP2K version 2025.1 (Development Version)
 CP2K| source code revision number:                                  git:32ddf85
 CP2K| cp2kflags: omp libint fftw3 libxc libgrpp elpa parallel scalapack mpi_f08
 CP2K|             cosma xsmm plumed2 spglib libvori libbqb libvdwxc hdf5
 CP2K| is freely available from                            https://www.cp2k.org/
 CP2K| Program compiled at                         Mon May 19 11:32:37 CEST 2025
 CP2K| Program compiled on                                              n2login1
 CP2K| Program compiled for                                                local
 CP2K| Data directory path    /opt/software/pc2/EB-SW/software/CP2K/2024.1-foss-
 CP2K| Input file name                                                    GW.inp

 GLOBAL| Force Environment number                                              1
 GLOBAL| Basis set file name            /scratch/hpc-prf-metdyn/metdyn02_Remi/BA
 GLOBAL| Potential file name            /pc2/groups/hpc-prf-metdyn/metdyn02_Remi
 GLOBAL| MM Potential file name                                     MM_POTENTIAL
 GLOBAL| Coordinate file name                                      __STD_INPUT__
 GLOBAL| Method name                                                        CP2K
 GLOBAL| Project name                                                       MoS2
 GLOBAL| Run type                                                         ENERGY
 GLOBAL| FFT library                                                       FFTW3
 GLOBAL| Diagonalization library                                            ELPA
 GLOBAL| Cholesky decomposition library                                ScaLAPACK
 GLOBAL| DGEMM library                                                      BLAS
 GLOBAL| Minimum number of eigenvectors for ELPA usage                        16
 GLOBAL| Orthonormality check for eigenvectors                          DISABLED
 GLOBAL| Matrix multiplication library                                     COSMA
 GLOBAL| All-to-all communication in single precision                          F
 GLOBAL| FFTs using library dependent lengths                                  F
 GLOBAL| Grid backend                                                       AUTO
 GLOBAL| Global print level                                               MEDIUM
 GLOBAL| MPI I/O enabled                                                       T
 GLOBAL| Total number of message passing processes                            32
 GLOBAL| Number of threads for this process                                    8
 GLOBAL| This output is from process                                           0
 GLOBAL| OpenMP stack size per thread (OMP_STACKSIZE)                    default
 GLOBAL| CPU model name                          AMD EPYC 7763 64-Core Processor
 GLOBAL| CPUID                                                              1002

 MEMORY| system memory details [Kb]
 MEMORY|                        rank 0           min           max       average
 MEMORY| MemTotal            263897576     263897512     263897600     263897571
 MEMORY| MemFree             245016432     245016432     252329168     250860738
 MEMORY| Buffers                126904         56576        126904        110704
 MEMORY| Cached               12850500       6801332      12850500       7730466
 MEMORY| Slab                  2471660       1374900       2471660       1837196
 MEMORY| SReclaimable          1076788        293432       1076788        635226
 MEMORY| MemLikelyFree       259070624     259070624     259503344     259337134


 *** Fundamental physical constants (SI units) ***

 *** Literature: B. J. Mohr and B. N. Taylor,
 ***             CODATA recommended values of the fundamental physical
 ***             constants: 2006, Web Version 5.1
 ***             http://physics.nist.gov/constants

 Speed of light in vacuum [m/s]                             2.99792458000000E+08
 Magnetic constant or permeability of vacuum [N/A**2]       1.25663706143592E-06
 Electric constant or permittivity of vacuum [F/m]          8.85418781762039E-12
 Planck constant (h) [J*s]                                  6.62606896000000E-34
 Planck constant (h-bar) [J*s]                              1.05457162825177E-34
 Elementary charge [C]                                      1.60217648700000E-19
 Electron mass [kg]                                         9.10938215000000E-31
 Electron g factor [ ]                                     -2.00231930436220E+00
 Proton mass [kg]                                           1.67262163700000E-27
 Fine-structure constant                                    7.29735253760000E-03
 Rydberg constant [1/m]                                     1.09737315685270E+07
 Avogadro constant [1/mol]                                  6.02214179000000E+23
 Boltzmann constant [J/K]                                   1.38065040000000E-23
 Atomic mass unit [kg]                                      1.66053878200000E-27
 Bohr radius [m]                                            5.29177208590000E-11

 *** Conversion factors ***

 [u] -> [a.u.]                                              1.82288848426455E+03
 [Angstrom] -> [Bohr] = [a.u.]                              1.88972613288564E+00
 [a.u.] = [Bohr] -> [Angstrom]                              5.29177208590000E-01
 [a.u.] -> [s]                                              2.41888432650478E-17
 [a.u.] -> [fs]                                             2.41888432650478E-02
 [a.u.] -> [J]                                              4.35974393937059E-18
 [a.u.] -> [N]                                              8.23872205491840E-08
 [a.u.] -> [K]                                              3.15774647902944E+05
 [a.u.] -> [kJ/mol]                                         2.62549961709828E+03
 [a.u.] -> [kcal/mol]                                       6.27509468713739E+02
 [a.u.] -> [Pa]                                             2.94210107994716E+13
 [a.u.] -> [bar]                                            2.94210107994716E+08
 [a.u.] -> [atm]                                            2.90362800883016E+08
 [a.u.] -> [eV]                                             2.72113838565563E+01
 [a.u.] -> [Hz]                                             6.57968392072181E+15
 [a.u.] -> [1/cm] (wave numbers)                            2.19474631370540E+05
 [a.u./Bohr**2] -> [1/cm]                                   5.14048714338585E+03
 

 CELL_TOP| Volume [angstrom^3]:                                     27000.000000
 CELL_TOP| Vector a [angstrom    30.000     0.000     0.000   |a| =    30.000000
 CELL_TOP| Vector b [angstrom     0.000    30.000     0.000   |b| =    30.000000
 CELL_TOP| Vector c [angstrom     0.000     0.000    30.000   |c| =    30.000000
 CELL_TOP| Angle (b,c), alpha [degree]:                                90.000000
 CELL_TOP| Angle (a,c), beta  [degree]:                                90.000000
 CELL_TOP| Angle (a,b), gamma [degree]:                                90.000000
 CELL_TOP| Numerically orthorhombic:                                         YES
 CELL_TOP| Periodicity                                                      NONE

 GENERATE|  Preliminary Number of Bonds generated:                             0
 GENERATE|  Achieved consistency in connectivity generation.

 CELL| Volume [angstrom^3]:                                         27000.000000
 CELL| Vector a [angstrom]:      30.000     0.000     0.000   |a| =    30.000000
 CELL| Vector b [angstrom]:       0.000    30.000     0.000   |b| =    30.000000
 CELL| Vector c [angstrom]:       0.000     0.000    30.000   |c| =    30.000000
 CELL| Angle (b,c), alpha [degree]:                                    90.000000
 CELL| Angle (a,c), beta  [degree]:                                    90.000000
 CELL| Angle (a,b), gamma [degree]:                                    90.000000
 CELL| Numerically orthorhombic:                                             YES
 CELL| Periodicity                                                          NONE

 CELL_REF| Volume [angstrom^3]:                                     27000.000000
 CELL_REF| Vector a [angstrom    30.000     0.000     0.000   |a| =    30.000000
 CELL_REF| Vector b [angstrom     0.000    30.000     0.000   |b| =    30.000000
 CELL_REF| Vector c [angstrom     0.000     0.000    30.000   |c| =    30.000000
 CELL_REF| Angle (b,c), alpha [degree]:                                90.000000
 CELL_REF| Angle (a,c), beta  [degree]:                                90.000000
 CELL_REF| Angle (a,b), gamma [degree]:                                90.000000
 CELL_REF| Numerically orthorhombic:                                         YES
 CELL_REF| Periodicity                                                      NONE

 *******************************************************************************
 *******************************************************************************
 **                                                                           **
 **     #####                         ##              ##                      **
 **    ##   ##            ##          ##              ##                      **
 **   ##     ##                       ##            ######                    **
 **   ##     ##  ##   ##  ##   #####  ##  ##   ####   ##    #####    #####    **
 **   ##     ##  ##   ##  ##  ##      ## ##   ##      ##   ##   ##  ##   ##   **
 **   ##  ## ##  ##   ##  ##  ##      ####     ###    ##   ######   ######    **
 **    ##  ###   ##   ##  ##  ##      ## ##      ##   ##   ##       ##        **
 **     #######   #####   ##   #####  ##  ##  ####    ##    #####   ##        **
 **           ##                                                    ##        **
 **                                                                           **
 **                                                ... make the atoms dance   **
 **                                                                           **
 **            Copyright (C) by CP2K developers group (2000-2025)             **
 **                      J. Chem. Phys. 152, 194103 (2020)                    **
 **                                                                           **
 *******************************************************************************

 DFT| Spin restricted Kohn-Sham (RKS) calculation                            RKS
 DFT| Multiplicity                                                             1
 DFT| Number of spin states                                                    1
 DFT| Charge                                                                   0
 DFT| Self-interaction correction (SIC)                                       NO
 DFT| Cutoffs: density                                              1.000000E-10
 DFT|          gradient                                             1.000000E-10
 DFT|          tau                                                  1.000000E-10
 DFT|          cutoff_smoothing_range                               0.000000E+00
 DFT| XC density smoothing                                                  NONE
 DFT| XC derivatives                                                          PW

 FUNCTIONAL| PBE:
 FUNCTIONAL| J.P.Perdew, K.Burke, M.Ernzerhof, Phys. Rev. Letter, vol. 77, n 18,
 FUNCTIONAL|  pp. 3865-3868, (1996)sx=0.750sc=1.000{spin unpolarized}           


 QS| Method:                                                                GAPW
 QS| Density plane wave grid type                        NON-SPHERICAL FULLSPACE
 QS| Number of grid levels:                                                    4
 QS| Density cutoff [a.u.]:                                                250.0
 QS| Multi grid cutoff [a.u.]: 1) grid level                               250.0
 QS|                           2) grid level                                83.3
 QS|                           3) grid level                                27.8
 QS|                           4) grid level                                 9.3
 QS| Grid level progression factor:                                          3.0
 QS| Relative density cutoff [a.u.]:                                        50.0
 QS| Interaction thresholds: eps_pgf_orb:                                1.0E-12
 QS|                         eps_filter_matrix:                          0.0E+00
 QS|                         eps_core_charge:                            1.0E-14
 QS|                         eps_rho_gspace:                             1.0E-12
 QS|                         eps_rho_rspace:                             1.0E-12
 QS|                         eps_gvg_rspace:                             1.0E-06
 QS|                         eps_ppl:                                    1.0E-02
 QS|                         eps_ppnl:                                   1.0E-08
 QS| GAPW|      One center basis from orbital basis primitives
 QS| GAPW|                   eps_fit:                                    1.0E-04
 QS| GAPW|                   eps_iso:                                    1.0E-12
 QS| GAPW|                   eps_svd:                                    1.0E-08
 QS| GAPW|                   eps_cpc:                                    1.0E-12
 QS| GAPW|   atom-r-grid: quadrature:                                     GC_LOG
 QS| GAPW|      atom-s-grid:  max l :                                          2
 QS| GAPW|      max_l_rho0 :                                                   2


 ATOMIC KIND INFORMATION

  1. Atomic kind: N                                     Number of atoms:       3

     Orbital Basis Set                                    aug-SZV-MOLOPT-ae-mini

       Number of orbital shell sets:                                           2
       Number of orbital shells:                                               5
       Number of primitive Cartesian functions:                                7
       Number of Cartesian basis functions:                                    9
       Number of spherical basis functions:                                    9
       Norm type:                                                              2

       Normalised Cartesian orbitals:

                        Set   Shell   Orbital            Exponent    Coefficient

                          1       1    1s                0.112012       0.000000
                                                         0.285714       0.194997
                                                         0.878496       0.258372
                                                         3.780455      -0.193164

                          1       2    2s                0.112012      -0.247059
                                                         0.285714       0.355178
                                                         0.878496       0.105643
                                                         3.780455      -0.000189

                          1       3    2px               0.112012       0.000000
                                                         0.285714       0.116706
                                                         0.878496       0.736703
                                                         3.780455       1.171552
                          1       3    2py               0.112012       0.000000
                                                         0.285714       0.116706
                                                         0.878496       0.736703
                                                         3.780455       1.171552
                          1       3    2pz               0.112012       0.000000
                                                         0.285714       0.116706
                                                         0.878496       0.736703
                                                         3.780455       1.171552

                          1       4    3px               0.112012       0.096580
                                                         0.285714      -0.017996
                                                         0.878496       0.000162
                                                         3.780455       0.000013
                          1       4    3py               0.112012       0.096580
                                                         0.285714      -0.017996
                                                         0.878496       0.000162
                                                         3.780455       0.000013
                          1       4    3pz               0.112012       0.096580
                                                         0.285714      -0.017996
                                                         0.878496       0.000162
                                                         3.780455       0.000013

                          2       1    1s               99.106168       3.454863
                                                        18.052312       3.341413
                                                         4.885660       1.041372

     RI Auxiliary Basis Set             RI_aug-SZV-MOLOPT-ae-mini_N_RI_047_s_p_d

       Number of orbital shell sets:                                          17
       Number of orbital shells:                                              17
       Number of primitive Cartesian functions:                               17
       Number of Cartesian basis functions:                                   52
       Number of spherical basis functions:                                   47
       Norm type:                                                              2

       Normalised Cartesian orbitals:

                        Set   Shell   Orbital            Exponent    Coefficient

                          1       1    1s                0.280030       0.274355

                          2       1    8px               0.280030       0.290366
                          2       1    8py               0.280030       0.290366
                          2       1    8pz               0.280030       0.290366

                          3       1   13dx2              0.280030       0.177426
                          3       1   13dxy              0.280030       0.307311
                          3       1   13dxz              0.280030       0.307311
                          3       1   13dy2              0.280030       0.177426
                          3       1   13dyz              0.280030       0.307311
                          3       1   13dz2              0.280030       0.177426

                          4       1    2s                0.470510       0.404890

                          5       1    9px               0.609890       0.768254
                          5       1    9py               0.609890       0.768254
                          5       1    9pz               0.609890       0.768254

                          6       1   14dx2              0.609890       0.692787
                          6       1   14dxy              0.609890       1.199942
                          6       1   14dxz              0.609890       1.199942
                          6       1   14dy2              0.609890       0.692787
                          6       1   14dyz              0.609890       1.199942
                          6       1   14dz2              0.609890       0.692787

                          7       1    3s                0.790558       0.597531

                          8       1    4s                1.328308       0.881828

                          9       1   15dx2              1.328308       2.705093
                          9       1   15dxy              1.328308       4.685358
                          9       1   15dxz              1.328308       4.685358
                          9       1   15dy2              1.328308       2.705093
                          9       1   15dyz              1.328308       4.685358
                          9       1   15dz2              1.328308       2.705093

                         10       1   10px               1.328308       2.032654
                         10       1   10py               1.328308       2.032654
                         10       1   10pz               1.328308       2.032654

                         11       1    5s                2.231842       1.301391

                         12       1   11px               2.892982       5.378018
                         12       1   11py               2.892982       5.378018
                         12       1   11pz               2.892982       5.378018

                         13       1   16dx2              2.892982      10.562447
                         13       1   16dxy              2.892982      18.294694
                         13       1   16dxz              2.892982      18.294694
                         13       1   16dy2              2.892982      10.562447
                         13       1   16dyz              2.892982      18.294694
                         13       1   16dz2              2.892982      10.562447

                         14       1    6s                3.749973       1.920575

                         15       1   17dx2              6.300758      41.242682
                         15       1   17dxy              6.300758      71.434420
                         15       1   17dxz              6.300758      71.434420
                         15       1   17dy2              6.300758      41.242682
                         15       1   17dyz              6.300758      71.434420
                         15       1   17dz2              6.300758      41.242682

                         16       1    7s                6.300758       2.834358

                         17       1   12px               6.300758      14.229221
                         17       1   12py               6.300758      14.229221
                         17       1   12pz               6.300758      14.229221

       Atomic covalent radius [Angstrom]:                                  0.750

       Atomic van der Waals radius [Angstrom]:                             1.550

     The atoms of this atomic kind are PAW atoms (GAPW):
       Hard Gaussian function radius:                                      1.512
       Rho0 radius:                                                        1.512
       Maximum GTO radius used for PAW projector construction:            24.566

     GAPW Soft Basis Set                             aug-SZV-MOLOPT-ae-mini_soft

       Number of orbital shell sets:                                           2
       Number of orbital shells:                                               5
       Number of primitive Cartesian functions:                                4
       Number of Cartesian basis functions:                                    9
       Number of spherical basis functions:                                    9
       Norm type:                                                              2

       Normalised Cartesian orbitals:

                        Set   Shell   Orbital            Exponent    Coefficient

                          1       1    1s                0.112012       0.000000
                                                         0.285714       0.194997
                                                         0.878496       0.258372
                                                         3.780455      -0.193164

                          1       2    2s                0.112012      -0.247059
                                                         0.285714       0.355178
                                                         0.878496       0.105643
                                                         3.780455      -0.000189

                          1       3    2px               0.112012       0.000000
                                                         0.285714       0.116706
                                                         0.878496       0.736703
                                                         3.780455       1.171552
                          1       3    2py               0.112012       0.000000
                                                         0.285714       0.116706
                                                         0.878496       0.736703
                                                         3.780455       1.171552
                          1       3    2pz               0.112012       0.000000
                                                         0.285714       0.116706
                                                         0.878496       0.736703
                                                         3.780455       1.171552

                          1       4    3px               0.112012       0.096580
                                                         0.285714      -0.017996
                                                         0.878496       0.000162
                                                         3.780455       0.000013
                          1       4    3py               0.112012       0.096580
                                                         0.285714      -0.017996
                                                         0.878496       0.000162
                                                         3.780455       0.000013
                          1       4    3pz               0.112012       0.096580
                                                         0.285714      -0.017996
                                                         0.878496       0.000162
                                                         3.780455       0.000013

                          2       1    1s         

     AE Potential information for                                            ALL

       Description:                                       All-electron potential
                                          Krack, Parrinello, PCCP 2, 2105 (2000)

       Gaussian exponent of the core charge distribution:               5.979100
       Electronic configuration (s p d ...):                           4   3   0

  2. Atomic kind: O                                     Number of atoms:       4

     Orbital Basis Set                                    aug-SZV-MOLOPT-ae-mini

       Number of orbital shell sets:                                           2
       Number of orbital shells:                                               5
       Number of primitive Cartesian functions:                                7
       Number of Cartesian basis functions:                                    9
       Number of spherical basis functions:                                    9
       Norm type:                                                              2

       Normalised Cartesian orbitals:

                        Set   Shell   Orbital            Exponent    Coefficient

                          1       1    1s                0.162491       0.000000
                                                         0.380388       0.241685
                                                         1.169596       0.320234
                                                         5.033151      -0.239413

                          1       2    2s                0.162491       0.289618
                                                         0.380388      -0.257800
                                                         1.169596      -0.000000
                                                         5.033151      -0.000284

                          1       3    2px               0.162491       0.000000
                                                         0.380388       0.166902
                                                         1.169596       1.053568
                                                         5.033151       1.675450
                          1       3    2py               0.162491       0.000000
                                                         0.380388       0.166902
                                                         1.169596       1.053568
                                                         5.033151       1.675450
                          1       3    2pz               0.162491       0.000000
                                                         0.380388       0.166902
                                                         1.169596       1.053568
                                                         5.033151       1.675450

                          1       4    3px               0.162491       0.166510
                                                         0.380388      -0.081234
                                                         1.169596      -0.994066
                                                         5.033151       0.014231
                          1       4    3py               0.162491       0.166510
                                                         0.380388      -0.081234
                                                         1.169596      -0.994066
                                                         5.033151       0.014231
                          1       4    3pz               0.162491       0.166510
                                                         0.380388      -0.081234
                                                         1.169596      -0.994066
                                                         5.033151       0.014231

                          2       1    1s              130.709321       4.251922
                                                        23.808866       4.112298
                                                         6.443608       1.281622

     RI Auxiliary Basis Set             RI_aug-SZV-MOLOPT-ae-mini_N_RI_047_s_p_d

       Number of orbital shell sets:                                          17
       Number of orbital shells:                                              17
       Number of primitive Cartesian functions:                               17
       Number of Cartesian basis functions:                                   52
       Number of spherical basis functions:                                   47
       Norm type:                                                              2

       Normalised Cartesian orbitals:

                        Set   Shell   Orbital            Exponent    Coefficient

                          1       1    1s                0.406227       0.362649

                          2       1    8px               0.406227       0.462276
                          2       1    8py               0.406227       0.462276
                          2       1    8pz               0.406227       0.462276

                          3       1   13dx2              0.406228       0.340217
                          3       1   13dxy              0.406228       0.589273
                          3       1   13dxz              0.406228       0.589273
                          3       1   13dy2              0.406228       0.340217
                          3       1   13dyz              0.406228       0.589273
                          3       1   13dz2              0.406228       0.340217

                          4       1    2s                0.672857       0.529483

                          5       1    9px               0.865963       1.190732
                          5       1    9py               0.865963       1.190732
                          5       1    9pz               0.865963       1.190732

                          6       1   14dx2              0.865963       1.279479
                          6       1   14dxy              0.865963       2.216122
                          6       1   14dxz              0.865963       2.216122
                          6       1   14dy2              0.865963       1.279479
                          6       1   14dyz              0.865963       2.216122
                          6       1   14dz2              0.865963       1.279479

                          7       1    3s                1.114489       0.773067

                          8       1    4s                1.845989       1.128709

                          9       1   10px               1.845989       3.067089
                          9       1   10py               1.845989       3.067089
                          9       1   10pz               1.845989       3.067089

                         10       1   15dx2              1.845989       4.811830
                         10       1   15dxy              1.845989       8.334333
                         10       1   15dxz              1.845989       8.334333
                         10       1   15dy2              1.845989       4.811830
                         10       1   15dyz              1.845989       8.334333
                         10       1   15dz2              1.845989       4.811830

                         11       1    5s                3.057611       1.647960

                         12       1   11px               3.935128       7.900211
                         12       1   11py               3.935128       7.900211
                         12       1   11pz               3.935128       7.900211

                         13       1   16dx2              3.935128      18.096203
                         13       1   16dxy              3.935128      31.343543
                         13       1   16dxz              3.935128      31.343543
                         13       1   16dy2              3.935128      18.096203
                         13       1   16dyz              3.935128      31.343543
                         13       1   16dz2              3.935128      18.096203

                         14       1    6s                5.064487       2.406089

                         15       1    7s                8.388585       3.512988

                         16       1   12px               8.388585      20.349370
                         16       1   12py               8.388585      20.349370
                         16       1   12pz               8.388585      20.349370

                         17       1   17dx2              8.388585      68.055730
                         17       1   17dxy              8.388585     117.875982
                         17       1   17dxz              8.388585     117.875982
                         17       1   17dy2              8.388585      68.055730
                         17       1   17dyz              8.388585     117.875982
                         17       1   17dz2              8.388585      68.055730

       Atomic covalent radius [Angstrom]:                                  0.730

       Atomic van der Waals radius [Angstrom]:                             1.520

     The atoms of this atomic kind are PAW atoms (GAPW):
       Hard Gaussian function radius:                                      1.512
       Rho0 radius:                                                        1.512
       Maximum GTO radius used for PAW projector construction:            24.566

     GAPW Soft Basis Set                             aug-SZV-MOLOPT-ae-mini_soft

       Number of orbital shell sets:                                           2
       Number of orbital shells:                                               5
       Number of primitive Cartesian functions:                                3
       Number of Cartesian basis functions:                                    9
       Number of spherical basis functions:                                    9
       Norm type:                                                              2

       Normalised Cartesian orbitals:

                        Set   Shell   Orbital            Exponent    Coefficient

                          1       1    1s                0.162491       0.000000
                                                         0.380388       0.241685
                                                         1.169596       0.320234

                          1       2    2s                0.162491       0.289618
                                                         0.380388      -0.257800
                                                         1.169596      -0.000000

                          1       3    2px               0.162491       0.000000
                                                         0.380388       0.166902
                                                         1.169596       1.053568
                          1       3    2py               0.162491       0.000000
                                                         0.380388       0.166902
                                                         1.169596       1.053568
                          1       3    2pz               0.162491       0.000000
                                                         0.380388       0.166902
                                                         1.169596       1.053568

                          1       4    3px               0.162491       0.166510
                                                         0.380388      -0.081234
                                                         1.169596      -0.994066
                          1       4    3py               0.162491       0.166510
                                                         0.380388      -0.081234
                                                         1.169596      -0.994066
                          1       4    3pz               0.162491       0.166510
                                                         0.380388      -0.081234
                                                         1.169596      -0.994066

                          2       1    1s         

     AE Potential information for                                            ALL

       Description:                                       All-electron potential
                                          Krack, Parrinello, PCCP 2, 2105 (2000)

       Gaussian exponent of the core charge distribution:               8.154466
       Electronic configuration (s p d ...):                           4   4   0

  3. Atomic kind: H                                     Number of atoms:       5

     Orbital Basis Set                                    aug-SZV-MOLOPT-ae-mini

       Number of orbital shell sets:                                           1
       Number of orbital shells:                                               4
       Number of primitive Cartesian functions:                                7
       Number of Cartesian basis functions:                                    6
       Number of spherical basis functions:                                    6
       Norm type:                                                              2

       Normalised Cartesian orbitals:

                        Set   Shell   Orbital            Exponent    Coefficient

                          1       1    1s                0.065428       0.000000
                                                         0.100112       0.016532
                                                         0.243077       0.102760
                                                         0.625955       0.185857
                                                         1.822143       0.188385
                                                         6.513144       0.143430
                                                        35.523221       0.095030

                          1       2    2s                0.065428       0.083549
                                                         0.100112       0.009605
                                                         0.243077       0.002524
                                                         0.625955       0.013457
                                                         1.822143       0.000000
                                                         6.513144       0.000000
                                                        35.523221       0.000000

                          1       3    3s                0.065428       0.037407
                                                         0.100112      -0.169070
                                                         0.243077      -0.018899
                                                         0.625955       0.012806
                                                         1.822143       0.000000
                                                         6.513144       0.000000
                                                        35.523221       0.000000

                          1       4    2px               0.065428       0.059908
                                                         0.100112      -0.023770
                                                         0.243077       0.000032
                                                         0.625955       0.017779
                                                         1.822143       0.000000
                                                         6.513144       0.000000
                                                        35.523221       0.000000
                          1       4    2py               0.065428       0.059908
                                                         0.100112      -0.023770
                                                         0.243077       0.000032
                                                         0.625955       0.017779
                                                         1.822143       0.000000
                                                         6.513144       0.000000
                                                        35.523221       0.000000
                          1       4    2pz               0.065428       0.059908
                                                         0.100112      -0.023770
                                                         0.243077       0.000032
                                                         0.625955       0.017779
                                                         1.822143       0.000000
                                                         6.513144       0.000000
                                                        35.523221       0.000000

     RI Auxiliary Basis Set             RI_aug-SZV-MOLOPT-ae_N_RI_035_s_p_d_f_g_

       Number of orbital shell sets:                                          15
       Number of orbital shells:                                              15
       Number of primitive Cartesian functions:                               15
       Number of Cartesian basis functions:                                   37
       Number of spherical basis functions:                                   35
       Norm type:                                                              2

       Normalised Cartesian orbitals:

                        Set   Shell   Orbital            Exponent    Coefficient

                          1       1    1s                0.236911       0.242019

                          2       1    8px               0.347892       0.380843
                          2       1    8py               0.347892       0.380843
                          2       1    8pz               0.347892       0.380843

                          3       1    2s                0.423897       0.374417

                          4       1    9px               0.493166       0.589089
                          4       1    9py               0.493166       0.589089
                          4       1    9pz               0.493166       0.589089

                          5       1   14dx2              0.625366       0.723843
                          5       1   14dxy              0.625366       1.253733
                          5       1   14dxz              0.625366       1.253733
                          5       1   14dy2              0.625366       0.723843
                          5       1   14dyz              0.625366       1.253733
                          5       1   14dz2              0.625366       0.723843

                          6       1   10px               0.699103       0.911206
                          6       1   10py               0.699103       0.911206
                          6       1   10pz               0.699103       0.911206

                          7       1    3s                0.758464       0.579244

                          8       1   11px               0.991036       1.409457
                          8       1   11py               0.991036       1.409457
                          8       1   11pz               0.991036       1.409457

                          9       1   15dx2              1.286053       2.556305
                          9       1   15dxy              1.286053       4.427650
                          9       1   15dxz              1.286053       4.427650
                          9       1   15dy2              1.286053       2.556305
                          9       1   15dyz              1.286053       4.427650
                          9       1   15dz2              1.286053       2.556305

                         10       1    4s                1.357095       0.896123

                         11       1   12px               1.404875       2.180155
                         11       1   12py               1.404875       2.180155
                         11       1   12pz               1.404875       2.180155

                         12       1   13px               1.991527       3.372273
                         12       1   13py               1.991527       3.372273
                         12       1   13pz               1.991527       3.372273

                         13       1    5s                2.428204       1.386354

                         14       1    6s                4.344704       2.144768

                         15       1    7s                7.773833       3.318077

       Atomic covalent radius [Angstrom]:                                  0.320

       Atomic van der Waals radius [Angstrom]:                             1.090

     The atoms of this atomic kind are PAW atoms (GAPW):
       Hard Gaussian function radius:                                      1.200
       Rho0 radius:                                                        1.200
       Maximum GTO radius used for PAW projector construction:            24.566

     GAPW Soft Basis Set                             aug-SZV-MOLOPT-ae-mini_soft

       Number of orbital shell sets:                                           1
       Number of orbital shells:                                               4
       Number of primitive Cartesian functions:                                6
       Number of Cartesian basis functions:                                    6
       Number of spherical basis functions:                                    6
       Norm type:                                                              2

       Normalised Cartesian orbitals:

                        Set   Shell   Orbital            Exponent    Coefficient

                          1       1    1s                0.065428       0.000000
                                                         0.100112       0.016532
                                                         0.243077       0.102760
                                                         0.625955       0.185857
                                                         1.822143       0.188385
                                                         6.513144       0.000000

                          1       2    2s                0.065428       0.083549
                                                         0.100112       0.009605
                                                         0.243077       0.002524
                                                         0.625955       0.013457
                                                         1.822143       0.000000
                                                         6.513144       0.000000

                          1       3    3s                0.065428       0.037407
                                                         0.100112      -0.169070
                                                         0.243077      -0.018899
                                                         0.625955       0.012806
                                                         1.822143       0.000000
                                                         6.513144       0.000000

                          1       4    2px               0.065428       0.059908
                                                         0.100112      -0.023770
                                                         0.243077       0.000032
                                                         0.625955       0.017779
                                                         1.822143       0.000000
                                                         6.513144       0.000000
                          1       4    2py               0.065428       0.059908
                                                         0.100112      -0.023770
                                                         0.243077       0.000032
                                                         0.625955       0.017779
                                                         1.822143       0.000000
                                                         6.513144       0.000000
                          1       4    2pz               0.065428       0.059908
                                                         0.100112      -0.023770
                                                         0.243077       0.000032
                                                         0.625955       0.017779
                                                         1.822143       0.000000
                                                         6.513144       0.000000

     AE Potential information for                                            ALL

       Description:                                       All-electron potential
                                          Krack, Parrinello, PCCP 2, 2105 (2000)

       Gaussian exponent of the core charge distribution:              12.500000
       Electronic configuration (s p d ...):                           1   0   0

  4. Atomic kind: C                                     Number of atoms:       5

     Orbital Basis Set                                    aug-SZV-MOLOPT-ae-mini

       Number of orbital shell sets:                                           2
       Number of orbital shells:                                               5
       Number of primitive Cartesian functions:                                7
       Number of Cartesian basis functions:                                    9
       Number of spherical basis functions:                                    9
       Norm type:                                                              2

       Normalised Cartesian orbitals:

                        Set   Shell   Orbital            Exponent    Coefficient

                          1       1    2s                0.114558       0.000000
                                                         0.222289       0.161536
                                                         0.683483       0.214036
                                                         2.941249      -0.160017

                          1       2    3s                0.114558       0.000272
                                                         0.222289       0.256636
                                                         0.683483      -0.079244
                                                         2.941249       0.000032

                          1       3    3px               0.114558       0.000000
                                                         0.222289       0.085276
                                                         0.683483       0.538304
                                                         2.941249       0.856044
                          1       3    3py               0.114558       0.000000
                                                         0.222289       0.085276
                                                         0.683483       0.538304
                                                         2.941249       0.856044
                          1       3    3pz               0.114558       0.000000
                                                         0.222289       0.085276
                                                         0.683483       0.538304
                                                         2.941249       0.856044

                          1       4    4px               0.114558      -0.035043
                                                         0.222289      -0.159067
                                                         0.683483       0.106927
                                                         2.941249      -0.036832
                          1       4    4py               0.114558      -0.035043
                                                         0.222289      -0.159067
                                                         0.683483       0.106927
                                                         2.941249      -0.036832
                          1       4    4pz               0.114558      -0.035043
                                                         0.222289      -0.159067
                                                         0.683483       0.106927
                                                         2.941249      -0.036832

                          2       1    1s               71.616837       2.707801
                                                        13.045096       2.618883
                                                         3.530512       0.816191

     RI Auxiliary Basis Set             RI_aug-SZV-MOLOPT-ae-mini_N_RI_055_s_p_d

       Number of orbital shell sets:                                          19
       Number of orbital shells:                                              19
       Number of primitive Cartesian functions:                               19
       Number of Cartesian basis functions:                                   61
       Number of spherical basis functions:                                   55
       Norm type:                                                              2

       Normalised Cartesian orbitals:

                        Set   Shell   Orbital            Exponent    Coefficient

                          1       1    1s                0.286395       0.279019

                          2       1    8px               0.286395       0.298639
                          2       1    8py               0.286395       0.298639
                          2       1    8pz               0.286395       0.298639

                          3       1   14dx2              0.286395       0.184544
                          3       1   14dxy              0.286395       0.319639
                          3       1   14dxz              0.286395       0.319639
                          3       1   14dy2              0.286395       0.184544
                          3       1   14dyz              0.286395       0.319639
                          3       1   14dz2              0.286395       0.184544

                          4       1    2s                0.459764       0.397934

                          5       1    9px               0.505415       0.607436
                          5       1    9py               0.505415       0.607436
                          5       1    9pz               0.505415       0.607436

                          6       1   15dx2              0.505415       0.498648
                          6       1   15dxy              0.505415       0.863684
                          6       1   15dxz              0.505415       0.863684
                          6       1   15dy2              0.505415       0.498648
                          6       1   15dyz              0.505415       0.863684
                          6       1   15dz2              0.505415       0.498648

                          7       1    3s                0.738081       0.567529

                          8       1   10px               0.891931       1.235533
                          8       1   10py               0.891931       1.235533
                          8       1   10pz               0.891931       1.235533

                          9       1   16dx2              0.891931       1.347378
                          9       1   16dxy              0.891931       2.333728
                          9       1   16dxz              0.891931       2.333728
                          9       1   16dy2              0.891931       1.347378
                          9       1   16dyz              0.891931       2.333728
                          9       1   16dz2              0.891931       1.347378

                         10       1    4s                1.184876       0.809403

                         11       1   11px               1.574035       2.513091
                         11       1   11py               1.574035       2.513091
                         11       1   11pz               1.574035       2.513091

                         12       1   17dx2              1.574035       3.640699
                         12       1   17dxy              1.574035       6.305876
                         12       1   17dxz              1.574035       6.305876
                         12       1   17dy2              1.574035       3.640699
                         12       1   17dyz              1.574035       6.305876
                         12       1   17dz2              1.574035       3.640699

                         13       1    5s                1.902139       1.154361

                         14       1   12px               2.777778       5.111660
                         14       1   12py               2.777778       5.111660
                         14       1   12pz               2.777778       5.111660

                         15       1   18dx2              2.777778       9.837395
                         15       1   18dxy              2.777778      17.038868
                         15       1   18dxz              2.777778      17.038868
                         15       1   18dy2              2.777778       9.837395
                         15       1   18dyz              2.777778      17.038868
                         15       1   18dz2              2.777778       9.837395

                         16       1    6s                3.053594       1.646337

                         17       1    7s                4.902082       2.347986

                         18       1   13px               4.902082      10.397185
                         18       1   13py               4.902082      10.397185
                         18       1   13pz               4.902082      10.397185

                         19       1   19dx2              4.902082      26.581250
                         19       1   19dxy              4.902082      46.040076
                         19       1   19dxz              4.902082      46.040076
                         19       1   19dy2              4.902082      26.581250
                         19       1   19dyz              4.902082      46.040076
                         19       1   19dz2              4.902082      26.581250

       Atomic covalent radius [Angstrom]:                                  0.770

       Atomic van der Waals radius [Angstrom]:                             1.700

     The atoms of this atomic kind are PAW atoms (GAPW):
       Hard Gaussian function radius:                                      1.512
       Rho0 radius:                                                        1.512
       Maximum GTO radius used for PAW projector construction:            24.566

     GAPW Soft Basis Set                             aug-SZV-MOLOPT-ae-mini_soft

       Number of orbital shell sets:                                           2
       Number of orbital shells:                                               5
       Number of primitive Cartesian functions:                                5
       Number of Cartesian basis functions:                                    9
       Number of spherical basis functions:                                    9
       Norm type:                                                              2

       Normalised Cartesian orbitals:

                        Set   Shell   Orbital            Exponent    Coefficient

                          1       1    2s                0.114558       0.000000
                                                         0.222289       0.161536
                                                         0.683483       0.214036
                                                         2.941249      -0.160017

                          1       2    3s                0.114558       0.000272
                                                         0.222289       0.256636
                                                         0.683483      -0.079244
                                                         2.941249       0.000032

                          1       3    3px               0.114558       0.000000
                                                         0.222289       0.085276
                                                         0.683483       0.538304
                                                         2.941249       0.856044
                          1       3    3py               0.114558       0.000000
                                                         0.222289       0.085276
                                                         0.683483       0.538304
                                                         2.941249       0.856044
                          1       3    3pz               0.114558       0.000000
                                                         0.222289       0.085276
                                                         0.683483       0.538304
                                                         2.941249       0.856044

                          1       4    4px               0.114558      -0.035043
                                                         0.222289      -0.159067
                                                         0.683483       0.106927
                                                         2.941249      -0.036832
                          1       4    4py               0.114558      -0.035043
                                                         0.222289      -0.159067
                                                         0.683483       0.106927
                                                         2.941249      -0.036832
                          1       4    4pz               0.114558      -0.035043
                                                         0.222289      -0.159067
                                                         0.683483       0.106927
                                                         2.941249      -0.036832

                          2       1    1s                3.530512       0.816191

     AE Potential information for                                            ALL

       Description:                                       All-electron potential
                                          Krack, Parrinello, PCCP 2, 2105 (2000)

       Gaussian exponent of the core charge distribution:               4.109048
       Electronic configuration (s p d ...):                           4   2   0


 MOLECULE KIND INFORMATION


 All atoms are their own molecule, skipping detailed information


 TOTAL NUMBERS AND MAXIMUM NUMBERS

  Total number of            - Atomic kinds:                                   4
                             - Atoms:                                         17
                             - Shell sets:                                    29
                             - Shells:                                        80
                             - Primitive Cartesian functions:                119
                             - Cartesian basis functions:                    138
                             - Spherical basis functions:                    138

  Maximum angular momentum of the orbital basis functions:                     1


 MODULE QUICKSTEP: ATOMIC COORDINATES IN ANGSTROM

   Atom Kind Element         X             Y             Z       Z(eff)     Mass
      1    1 N     7     12.976752     16.390162     15.188518   7.0000  14.0067
      2    2 O     8     12.188101     16.462611     14.234182   8.0000  15.9994
      3    2 O     8     12.853329     16.978858     16.256924   8.0000  15.9994
      4    2 O     8     17.474382     13.373700     14.109885   8.0000  15.9994
      5    3 H     1     16.357045     13.021142     17.387086   1.0000   1.0079
      6    1 N     7     15.626254     14.540084     13.452528   7.0000  14.0067
      7    3 H     1     15.903203     14.336295     12.497537   1.0000   1.0079
      8    4 C     6     16.489722     14.016277     14.431445   6.0000  12.0107
      9    1 N     7     16.098729     14.302704     15.732352   7.0000  14.0067
     10    4 C     6     16.922405     13.770541     16.820471   6.0000  12.0107
     11    3 H     1     17.193109     14.583338     17.502463   1.0000   1.0079
     12    3 H     1     17.811899     13.319780     16.376026   1.0000   1.0079
     13    4 C     6     14.938968     15.039977     16.133197   6.0000  12.0107
     14    2 O     8     14.682353     15.154558     17.315872   8.0000  15.9994
     15    4 C     6     14.162728     15.554366     14.999363   6.0000  12.0107
     16    4 C     6     14.518727     15.264947     13.719592   6.0000  12.0107
     17    3 H     1     13.921281     15.616826     12.880862   1.0000   1.0079



 SCF PARAMETERS         Density guess:                                    ATOMIC
                        --------------------------------------------------------
                        max_scf:                                             500
                        max_scf_history:                                       0
                        max_diis:                                              4
                        --------------------------------------------------------
                        eps_scf:                                        1.00E-06
                        eps_scf_history:                                0.00E+00
                        eps_diis:                                       1.00E-01
                        eps_eigval:                                     1.00E-05
                        --------------------------------------------------------
                        level_shift [a.u.]:                             0.000000
                        added MOs                                        94    0
                        --------------------------------------------------------
                        Mixing method:                            BROYDEN_MIXING
                                                charge density mixing in g-space
                        --------------------------------------------------------
                        No outer SCF

 PW_GRID| Information for grid number                                          1
 PW_GRID| Grid distributed over                                    32 processors
 PW_GRID| Real space group dimensions                                    32    1
 PW_GRID| the grid is blocked:                                                NO
 PW_GRID| Cutoff [a.u.]                                                    250.0
 PW_GRID| spherical cutoff:                                                   NO
 PW_GRID|   Bounds   1           -202     202                Points:         405
 PW_GRID|   Bounds   2           -202     202                Points:         405
 PW_GRID|   Bounds   3           -202     202                Points:         405
 PW_GRID| Volume element (a.u.^3)  0.2743E-02     Volume (a.u.^3)    182205.0337
 PW_GRID| Grid span                                                    FULLSPACE
 PW_GRID|   Distribution                         Average         Max         Min
 PW_GRID|   G-Vectors                          2075941.4     2076030     2075625
 PW_GRID|   G-Rays                                5125.8        5126        5125
 PW_GRID|   Real Space Points                  2075941.4     2132325     1968300

 PW_GRID| Information for grid number                                          2
 PW_GRID| Number of the reference grid                                         1
 PW_GRID| Grid distributed over                                    32 processors
 PW_GRID| Real space group dimensions                                    32    1
 PW_GRID| the grid is blocked:                                                NO
 PW_GRID| Cutoff [a.u.]                                                     83.3
 PW_GRID| spherical cutoff:                                                   NO
 PW_GRID|   Bounds   1           -120     119                Points:         240
 PW_GRID|   Bounds   2           -120     119                Points:         240
 PW_GRID|   Bounds   3           -120     119                Points:         240
 PW_GRID| Volume element (a.u.^3)  0.1318E-01     Volume (a.u.^3)    182205.0337
 PW_GRID| Grid span                                                    FULLSPACE
 PW_GRID|   Distribution                         Average         Max         Min
 PW_GRID|   G-Vectors                           432000.0      432480      431760
 PW_GRID|   G-Rays                                1800.0        1802        1799
 PW_GRID|   Real Space Points                   432000.0      460800      403200

 PW_GRID| Information for grid number                                          3
 PW_GRID| Number of the reference grid                                         1
 PW_GRID| Grid distributed over                                    32 processors
 PW_GRID| Real space group dimensions                                    32    1
 PW_GRID| the grid is blocked:                                                NO
 PW_GRID| Cutoff [a.u.]                                                     27.8
 PW_GRID| spherical cutoff:                                                   NO
 PW_GRID|   Bounds   1            -67      67                Points:         135
 PW_GRID|   Bounds   2            -67      67                Points:         135
 PW_GRID|   Bounds   3            -67      67                Points:         135
 PW_GRID| Volume element (a.u.^3)  0.7406E-01     Volume (a.u.^3)    182205.0337
 PW_GRID| Grid span                                                    FULLSPACE
 PW_GRID|   Distribution                         Average         Max         Min
 PW_GRID|   G-Vectors                            76886.7       77085       76680
 PW_GRID|   G-Rays                                 569.5         571         568
 PW_GRID|   Real Space Points                    76886.7       91125       72900

 PW_GRID| Information for grid number                                          4
 PW_GRID| Number of the reference grid                                         1
 PW_GRID| Grid distributed over                                    32 processors
 PW_GRID| Real space group dimensions                                    32    1
 PW_GRID| the grid is blocked:                                                NO
 PW_GRID| Cutoff [a.u.]                                                      9.3
 PW_GRID| spherical cutoff:                                                   NO
 PW_GRID|   Bounds   1            -40      39                Points:          80
 PW_GRID|   Bounds   2            -40      39                Points:          80
 PW_GRID|   Bounds   3            -40      39                Points:          80
 PW_GRID| Volume element (a.u.^3)  0.3559         Volume (a.u.^3)    182205.0337
 PW_GRID| Grid span                                                    FULLSPACE
 PW_GRID|   Distribution                         Average         Max         Min
 PW_GRID|   G-Vectors                            16000.0       16160       15920
 PW_GRID|   G-Rays                                 200.0         202         199
 PW_GRID|   Real Space Points                    16000.0       19200       12800

 POISSON| Solver                                                         WAVELET
 POISSON| Wavelet| Scaling function                                           40
 POISSON| Periodicity                                                       NONE

 RS_GRID| Information for grid number                                          1
 RS_GRID|   Bounds   1           -202     202                Points:         405
 RS_GRID|   Bounds   2           -202     202                Points:         405
 RS_GRID|   Bounds   3           -202     202                Points:         405
 RS_GRID| Real space distribution over                                  2 groups
 RS_GRID| Real space distribution along direction                              1
 RS_GRID| Border size                                                         33
 RS_GRID| Real space distribution over                                  4 groups
 RS_GRID| Real space distribution along direction                              2
 RS_GRID| Border size                                                         33
 RS_GRID| Real space distribution over                                  4 groups
 RS_GRID| Real space distribution along direction                              3
 RS_GRID| Border size                                                         33
 RS_GRID|   Distribution                         Average         Max         Min
 RS_GRID|   Planes                                 268.5         269         268
 RS_GRID|   Distribution                         Average         Max         Min
 RS_GRID|   Planes                                 167.2         168         167
 RS_GRID|   Distribution                         Average         Max         Min
 RS_GRID|   Planes                                 167.2         168         167

 RS_GRID| Information for grid number                                          2
 RS_GRID|   Bounds   1           -120     119                Points:         240
 RS_GRID|   Bounds   2           -120     119                Points:         240
 RS_GRID|   Bounds   3           -120     119                Points:         240
 RS_GRID| Real space distribution over                                  2 groups
 RS_GRID| Real space distribution along direction                              1
 RS_GRID| Border size                                                         35
 RS_GRID| Real space distribution over                                  4 groups
 RS_GRID| Real space distribution along direction                              2
 RS_GRID| Border size                                                         35
 RS_GRID| Real space distribution over                                  4 groups
 RS_GRID| Real space distribution along direction                              3
 RS_GRID| Border size                                                         35
 RS_GRID|   Distribution                         Average         Max         Min
 RS_GRID|   Planes                                 190.0         190         190
 RS_GRID|   Distribution                         Average         Max         Min
 RS_GRID|   Planes                                 130.0         130         130
 RS_GRID|   Distribution                         Average         Max         Min
 RS_GRID|   Planes                                 130.0         130         130

 RS_GRID| Information for grid number                                          3
 RS_GRID|   Bounds   1            -67      67                Points:         135
 RS_GRID|   Bounds   2            -67      67                Points:         135
 RS_GRID|   Bounds   3            -67      67                Points:         135
 RS_GRID| Real space fully replicated
 RS_GRID| Group size                                                           1

 RS_GRID| Information for grid number                                          4
 RS_GRID|   Bounds   1            -40      39                Points:          80
 RS_GRID|   Bounds   2            -40      39                Points:          80
 RS_GRID|   Bounds   3            -40      39                Points:          80
 RS_GRID| Real space fully replicated
 RS_GRID| Group size                                                           1

  HFX_INFO| Replica ID:                                                        1
  HFX_INFO| FRACTION:                                               0.2500000000
  HFX_INFO| Interaction Potential:                                       COULOMB
  HFX_INFO| EPS_SCHWARZ:                                                 1.0E-10
  HFX_INFO| EPS_SCHWARZ_FORCES                                           1.0E-08
  HFX_INFO| EPS_STORAGE_SCALING:                                         1.0E+00
  HFX_INFO| NBINS:                                                            64
[...]
 density_rs2pw                       79  7.0    0.002    0.003   11.414   11.963
 x_to_yz                            863 13.1    2.891    3.262    9.844   10.606
 yz_to_x                            787 12.8    2.135    2.315    8.677   10.253
 grid_collocate_task_list            79  7.0    8.635    9.136    8.635    9.136
 sum_up_and_integrate                79  8.0    0.001    0.001    8.709    8.734
 integrate_v_rspace                  79  9.0    0.002    0.002    8.588    8.624
 potential_pw2rs                     79 10.0    0.018    0.020    8.315    8.337
 transfer_rs2pw                     396  8.4    0.005    0.006    5.977    6.489
 transfer_pw2rs                     396 10.6    0.004    0.005    6.303    6.396
 prepare_gapw_den                    79  8.0    0.001    0.001    6.026    6.124
 put_rho0_on_grid                    79  9.0    0.630    0.658    5.903    6.002
 mp_waitany                       10472 11.5    5.174    5.843    5.174    5.843
 mp2_main                             1  3.0    0.000    0.000    5.549    5.583
 mp_alltoall_d45                     80 10.0    2.983    4.724    2.983    4.724
 mp2_gpw_main                         1  4.0    0.000    0.000    4.518    4.524
 transfer_rs2pw_250                 159 10.0    1.594    1.704    3.910    4.356
 transfer_pw2rs_250                 159 11.0    1.700    1.810    4.180    4.344
 pw_gather_p                        787 11.8    3.731    4.301    3.731    4.301
 rpa_ri_compute_en                    1  5.0    0.000    0.000    4.148    4.148
 pw_scatter_p                       863 12.1    3.943    4.119    3.943    4.119
 rpa_num_int                          1  6.0    0.001    0.001    4.091    4.092
 xc_functional_eval                 546 10.5    0.001    0.001    3.247    3.745
 pbe_lda_eval                       546 11.5    3.246    3.744    3.246    3.744
 mp_alltoall_d11v                  1936  9.7    1.526    3.217    1.526    3.217
 pw_derive                          705 11.3    2.945    3.113    2.945    3.113
 hfx_ks_matrix                       79  8.0    0.001    0.001    3.060    3.071
 integrate_four_center               79  9.0    1.639    2.044    3.054    3.064
 integrate_vhg0_rspace               79  8.0    0.025    0.040    2.623    2.682
 mp_sum_d                          3659  6.7    1.374    2.325    1.374    2.325
 compute_GW_self_energy             100  7.0    0.001    0.001    2.016    2.037
 pw_copy                           1180 10.6    1.902    2.013    1.902    2.013
 cp_fm_diag_elpa                     84  7.0    0.000    0.000    1.861    1.863
 cp_fm_diag_elpa_base                84  8.0    1.731    1.848    1.856    1.857
 parallel_gemm_fm                   376  8.4    0.000    0.000    1.721    1.734
 parallel_gemm_fm_cosma             376  9.4    1.721    1.733    1.721    1.733
 compute_GW_self_energy_deep        100  8.0    0.695    0.715    1.689    1.710
 pw_poisson_set                      80  8.9    0.002    0.002    1.476    1.567
 cp2k_distribution_to_z_slices       79  9.0    0.743    0.909    1.417    1.565
 qs_energies_init_hamiltonians        1  3.0    0.000    0.000    1.519    1.519
 start_bse_calculation                1  7.0    0.000    0.000    1.447    1.447
 build_core_hamiltonian_matrix        1  4.0    0.000    0.000    1.446    1.446
 overlap_condnum                      1  5.0    0.000    0.000    1.445    1.445
 mp_waitall_1                     21898 12.1    1.084    1.396    1.084    1.396
 pw_copy_to_array                   787 11.8    1.261    1.362    1.261    1.362
 pw_axpy                            785  9.3    1.178    1.304    1.178    1.304
 transfer_rs2pw_90                   79  9.0    0.255    0.282    1.128    1.280
 pw_copy_from_array                 863 12.1    1.091    1.181    1.091    1.181
 fft_wrap_pw1pw2_90                 158 10.5    0.055    0.059    1.002    1.175
 cp_fm_power                          2  7.5    0.025    0.027    1.159    1.164
 rs_grid_zero                       397 11.2    1.085    1.145    1.085    1.145
 transfer_pw2rs_30                   79 12.0    0.546    0.594    1.019    1.140
 mp_sync                            839  9.5    0.480    1.140    0.480    1.140
 transfer_pw2rs_90                   79 12.0    0.260    0.281    0.917    1.087
 pw_integral_ab_c1d_c1d_gs           79  9.0    0.853    0.871    0.943    0.999
 qs_scf_new_mos                      78  5.0    0.001    0.001    0.817    0.946
 init_scf_run                         1  3.0    0.000    0.000    0.913    0.913
 scf_env_initial_rho_setup            1  4.0    0.000    0.000    0.890    0.890
 compute_vec_Sigma_x_minus_vxc_       1  4.0    0.000    0.000    0.882    0.882
 write_mo_set_to_restart             78  5.0    0.028    0.866    0.866    0.872
 write_mo_set_low                     4  6.0    0.000    0.000    0.838    0.865
 cp_fm_write_unformatted              4  7.0    0.838    0.865    0.838    0.865
 transfer_rs2pw_30                   79  9.0    0.256    0.294    0.697    0.735
 create_hermitian_form_of_ABBA        1  8.0    0.000    0.000    0.700    0.701
 mp_sendrecv_dv                    4898 10.0    0.619    0.673    0.619    0.673
 rpa_num_int_RPA_matrix_operati     100  7.0    0.001    0.003    0.595    0.595
 diagonalize_C                        1  8.0    0.000    0.000    0.584    0.584
 pw_zero                            470 10.3    0.545    0.574    0.545    0.574
 dbcsr_multiply_generic             283  8.0    0.006    0.006    0.446    0.574
 pw_poisson_rebuild                  79  9.0    0.000    0.000    0.536    0.553
 ps_wavelet_create                    1 10.0    0.000    0.000    0.535    0.553
 RS_z_slice_distribution              1 11.0    0.464    0.496    0.535    0.553
 calculate_dm_sparse                 78  6.0    0.000    0.000    0.407    0.533
 cp_dbcsr_plus_fm_fm_t               78  7.0    0.001    0.001    0.406    0.532
 copy_dbcsr_to_fm                   189  7.1    0.002    0.002    0.428    0.530
 mp_sum_dm                         4112  7.7    0.364    0.520    0.364    0.520
 multiply_cannon                    283  9.0    0.011    0.012    0.340    0.485
 calculate_vxc_atom                  79  8.0    0.042    0.092    0.445    0.445
 calc_mat_Q                         100  8.0    0.000    0.000    0.432    0.435
 contract_S_to_Q                    100  9.0    0.000    0.000    0.428    0.432
 integrate_four_center_main          79 10.0    0.012    0.016    0.408    0.420
 powell_optimize                 274616 11.0    0.395    0.409    0.395    0.409
 dbcsr_complete_redistribute        349  8.6    0.011    0.013    0.355    0.407
 integrate_four_center_bin         4898 11.0    0.396    0.406    0.396    0.406
 qs_init_subsys                       1  2.0    0.001    0.001    0.385    0.386
 qs_env_setup                         1  3.0    0.000    0.000    0.383    0.383
 qs_env_rebuild_pw_env                2  3.5    0.000    0.000    0.383    0.383
 pw_env_rebuild                       1  5.0    0.000    0.000    0.383    0.383
 pw_grid_setup                        4  6.0    0.000    0.000    0.375    0.375
 pw_grid_setup_internal               4  7.0    0.005    0.006    0.375    0.375
 eigensolver_symm                    79  6.0    0.005    0.006    0.365    0.366
 mp_max_i                           633  2.9    0.173    0.364    0.173    0.364
 mp2_ri_gpw_compute_in                1  5.0    0.000    0.001    0.353    0.353
 mp_isend_dv                       9471 11.7    0.219    0.344    0.219    0.344
 self_consistency_check              78  5.0    0.000    0.000    0.199    0.341
 cp_sm_mix                           78  6.0    0.000    0.000    0.199    0.340
 mp_max_d                            80  6.9    0.198    0.340    0.198    0.340
 dbcsr_desymmetrize_deep            191  8.1    0.004    0.004    0.328    0.331
 mp_alltoall_i22                    540  9.4    0.261    0.331    0.261    0.331
 fft_wrap_pw1pw2_30                 158 10.5    0.012    0.012    0.249    0.327
 calc_screening_functions             1 10.0    0.078    0.078    0.306    0.317
 pw_grid_sort                         4  8.0    0.220    0.226    0.307    0.316
 cp_fm_cholesky_invert              101  8.0    0.300    0.315    0.300    0.315
 multiply_cannon_loop               283 10.0    0.003    0.003    0.170    0.298
 mp_alltoall_i11v                  1238  9.5    0.136    0.296    0.136    0.296
 mp2_ri_gpw_compute_in_loop           1  6.0    0.000    0.000    0.284    0.284
 Vh_1c_gg_integrals                  79  8.0    0.007    0.020    0.139    0.279
 gaVxcgb_GC                         234  9.0    0.049    0.279    0.049    0.279
 mp_sum_dv                         6227  9.8    0.183    0.274    0.183    0.274
 rs_gather_matrices                  79 10.0    0.001    0.002    0.177    0.270
 grid_integrate_task_list            79 10.0    0.095    0.265    0.095    0.265
 cp_fm_uplo_to_full                 188  8.4    0.102    0.261    0.102    0.261
 transfer_rs2pw_10                   79  9.0    0.058    0.064    0.237    0.261
 mp_isend_dm3                      2856 11.5    0.054    0.252    0.054    0.252
 calc_pair_dist_radii                 1 10.0    0.073    0.074    0.239    0.243
 pw_scale                           313  9.5    0.224    0.242    0.224    0.242
 scale_and_distribute               158 10.0    0.189    0.231    0.189    0.231
 multiply_cannon_metrocomm3         864 11.1    0.001    0.001    0.098    0.222
 mp_bcast_b_src                     163  7.5    0.066    0.211    0.066    0.211
 transfer_pw2rs_10                   79 12.0    0.080    0.089    0.182    0.198
 arnoldi_conjugate_gradient           5  6.0    0.004    0.006    0.195    0.195
 cp_fm_cholesky_decompose           102  9.0    0.177    0.191    0.177    0.191
 hybrid_alltoall_any                757 11.3    0.006    0.007    0.076    0.177
 cp_fm_norm                           2  6.0    0.050    0.175    0.050    0.175
 mp_allgather_i34                   283 10.0    0.152    0.169    0.152    0.169
 contract_B_L                         4  7.0    0.002    0.002    0.155    0.165
 mp_irecv_dv                       9409 11.7    0.013    0.165    0.013    0.165
 mp2_main_alloc_hfx                   1  4.0    0.127    0.160    0.127    0.160
 compute_Erpa_by_freq_int           100  8.0    0.001    0.001    0.156    0.156
 multiply_cannon_metrocomm4         581 11.1    0.001    0.001    0.020    0.146
 make_m2s                           566  9.0    0.003    0.003    0.075    0.141
 dbt_total                            8  8.0    0.000    0.000    0.125    0.125
 make_images                        566 10.0    0.008    0.008    0.055    0.122
 multiply_cannon_metrocomm1         864 11.1    0.000    0.001    0.032    0.119
 dbcsr_sym_matrix_vector_mult      1395  7.0    0.010    0.011    0.111    0.116
 dbt_contract                         4  9.0    0.000    0.000    0.111    0.114
 create_qs_kind_set                   1  2.0    0.000    0.000    0.108    0.109
 read_qs_kind                         4  3.0    0.042    0.059    0.108    0.109
 calculate_rho_atom                 316  9.0    0.069    0.107    0.069    0.107
 make_images_data                   566 11.0    0.003    0.003    0.028    0.094
 xc_pw_smooth                        78 10.0    0.000    0.000    0.081    0.093
 sort_shells                          4  9.0    0.088    0.091    0.088    0.091
 mp_sum_i                            19  9.5    0.034    0.090    0.034    0.090
 cp_fm_to_fm_submat_general         112 10.1    0.076    0.090    0.076    0.090
 restraint_control                    1  2.0    0.000    0.000    0.034    0.089
 calculate_rho_atom_coeff            79  6.0    0.015    0.017    0.087    0.088
 fm_general_add_bse                   5 10.2    0.000    0.000    0.080    0.083
 dbcsr_add_d                       2156  7.1    0.001    0.001    0.020    0.076
 dbcsr_add_anytype                 2156  8.1    0.002    0.009    0.019    0.075
 fft_wrap_pw1pw2_10                 158 10.5    0.003    0.003    0.061    0.074
 qs_env_update_s_mstruct              1  4.0    0.000    0.000    0.012    0.073
 qs_create_task_list                  1  5.0    0.000    0.000    0.012    0.073
 generate_qs_task_list                1  6.0    0.000    0.000    0.012    0.073
 distribute_tasks                     1  7.0    0.000    0.000    0.012    0.073
 calculate_ecore_overlap              1  4.0    0.000    0.000    0.061    0.072
 create_local_tasks                   1  8.0    0.000    0.000    0.011    0.072
 mp_alltoall_l11v                     1  9.0    0.011    0.072    0.011    0.072
 dbt_tas_multiply                     8 11.5    0.000    0.000    0.071    0.071
 create_B                             1  8.0    0.000    0.000    0.070    0.071
 dbt_tas_total                        8 12.5    0.000    0.000    0.071    0.071
 create_A                             1  8.0    0.001    0.001    0.069    0.071
 get_2c_integrals                     1  6.0    0.000    0.000    0.062    0.069
 parser_read_line                 18629  4.0    0.003    0.003    0.066    0.068
 mixing_init                          1  5.0    0.063    0.067    0.067    0.067
 scf_post_calculation_gpw             1  3.0    0.000    0.000    0.067    0.067
 write_available_results              1  4.0    0.000    0.000    0.067    0.067
 write_mo_free_results                1  5.0    0.009    0.010    0.067    0.067
 vxc_of_r_new                       468  9.0    0.002    0.010    0.012    0.066
 parser_read_line_low                30  5.0    0.002    0.017    0.063    0.065
 broadcast_input_information         30  6.0    0.005    0.005    0.062    0.064
 mp_isendrecv_dv                   9796 12.0    0.022    0.062    0.022    0.062
 dbcsr_finalize                    3712 10.2    0.006    0.014    0.031    0.060
 mp_cart_create                     651  9.9    0.045    0.057    0.046    0.057
 create_integ_mat                     4  6.0    0.001    0.001    0.056    0.057
 mp2_eri_3c_integrate                 1  7.0    0.003    0.003    0.047    0.057
 integrate_set_3c                  4716  8.0    0.036    0.045    0.045    0.055
 array2fm                             4  7.0    0.000    0.000    0.051    0.054
 dbcsr_col_vec_to_rep_row          1395  8.0    0.005    0.005    0.040    0.046
 dbt_tas_dbm                          8 13.5    0.000    0.000    0.046    0.046
 mp_bcast_i_src                     120  7.0    0.042    0.045    0.042    0.045
 dbt_tas_mm_1N                        8 14.5    0.000    0.000    0.039    0.043
 dbm_multiply                         8 15.5    0.039    0.043    0.039    0.043
 dbt_copy                            12 10.0    0.000    0.000    0.037    0.042
 update_ks_atom                      79  8.0    0.012    0.015    0.034    0.040
 dbt_pgrid_create_expert             84 10.8    0.000    0.000    0.025    0.038
 cholesky_decomp                      1  7.0    0.000    0.000    0.024    0.037
 mp_sum_l                          1479  7.1    0.031    0.034    0.031    0.034
 dbt_reshape                          8 11.5    0.003    0.003    0.029    0.034
 pw_grid_assign                       4  8.0    0.031    0.032    0.033    0.033
 invert_mat                           1  7.0    0.000    0.000    0.024    0.032
 cp_fm_triangular_invert              1  8.0    0.024    0.032    0.024    0.032
 mp_bcast_dv                       1395  9.0    0.025    0.031    0.025    0.031
 cp_fm_syrk                           3  7.0    0.030    0.031    0.030    0.031
 dbcsr_iterator_start             20154  9.0    0.017    0.023    0.021    0.030
 dbt_communicate_buffer               8 12.5    0.000    0.000    0.025    0.029
 mp2_main_free_hfx                    1  4.0    0.014    0.029    0.014    0.029
 pw_grid_remap                        4  8.0    0.005    0.006    0.020    0.029
 hirshfeld_integration                1  6.0    0.001    0.004    0.029    0.029
 fm_general_add_bse_1_setup           5 11.2    0.026    0.028    0.026    0.028
 dbcsr_merge_all                   3022 10.9    0.011    0.020    0.017    0.028
 mp_bcast_dm                       2686  9.0    0.022    0.028    0.022    0.028
 calculate_hirshfeld_normalizat       1  6.0    0.001    0.003    0.026    0.027
 dbt_remap                            8 10.0    0.001    0.001    0.026    0.026
 postprocess_bse                      1  9.0    0.000    0.000    0.026    0.026
 copy_fm_to_dbcsr                   160  8.1    0.000    0.000    0.024    0.026
 mp_comm_split_direct                48 14.5    0.019    0.026    0.019    0.026
 offload_free_buffer                 87  8.4    0.021    0.025    0.021    0.025
 array2fm_info                        4  8.0    0.022    0.024    0.023    0.024
 mp_rank_compare                   1650 12.9    0.021    0.024    0.021    0.024
 mp_sum_im3                           4  9.0    0.014    0.024    0.014    0.024
 mp_waitall_2                        48 15.8    0.016    0.023    0.016    0.023
 integrate_four_center_load          79 10.0    0.000    0.000    0.020    0.023
 hfx_load_balance                     1 11.0    0.000    0.000    0.020    0.023
 cp_fm_symm                          79  7.0    0.021    0.022    0.021    0.022
 dbcsr_copy                        6511  7.7    0.012    0.013    0.020    0.021
 compute_2c_integrals                 1  7.0    0.000    0.000    0.013    0.020
 integrate_four_center_dist_KS       79 10.0    0.003    0.004    0.019    0.020
 dbcsr_rep_row_to_rep_col_vec      1395  8.0    0.004    0.004    0.017    0.020
 mult_B_with_W                        1  8.0    0.000    0.000    0.020    0.020
 dbcsr_work_create                 3862 10.2    0.006    0.013    0.009    0.019
 ao_to_mo_and_store_B_mult_gw_1      25  7.0    0.000    0.000    0.017    0.019
 dbcsr_create_new                  9556  9.2    0.013    0.013    0.017    0.018
 hfx_load_balance_range               1 12.0    0.000    0.000    0.015    0.017
 fm_general_add_bse_4_buf_from_       1 10.0    0.015    0.017    0.015    0.017
 fm_general_add_bse_4_buf_from_       1 10.0    0.015    0.017    0.015    0.017
 ao_to_mo_and_store_B_mult_bse_      25  7.0    0.000    0.000    0.016    0.017
 mp_bcast_am_src                     30  7.0    0.014    0.016    0.014    0.017
 Q_trace_and_add_unit_matrix        100  8.0    0.000    0.001    0.007    0.017
 array2fm_buffer_send                 4  8.0    0.016    0.016    0.016    0.016
 multiply_cannon_multrec            864 11.1    0.012    0.015    0.013    0.016
 integrate_four_center_getP          79 10.0    0.003    0.003    0.014    0.016
 ao_to_mo_and_store_B_mult_1         25  7.0    0.000    0.000    0.015    0.016
 dbcsr_iterator_stop              20154  9.0    0.010    0.013    0.012    0.015
 dbcsr_work_destroy_all            3862 11.2    0.004    0.010    0.007    0.015
 ao_to_mo_and_store_B_mult_bse_      25  7.0    0.000    0.000    0.014    0.015
 fm_general_add_bse_5_comm_buff       5 11.2    0.000    0.000    0.012    0.015
 communicate_buffer                   5 12.2    0.000    0.000    0.012    0.015
 -------------------------------------------------------------------------------

 The number of warnings for this run is : 1
 
 -------------------------------------------------------------------------------
  **** **** ******  **  PROGRAM ENDED AT                 2025-06-23 12:11:55.568
 ***** ** ***  *** **   PROGRAM RAN ON                                  n2cn0172
 **    ****   ******    PROGRAM RAN BY                                  metdyn02
 ***** **    ** ** **   PROGRAM PROCESS ID                                670325
  **** **  *******  **  PROGRAM STOPPED IN /scratch/hpc-prf-metdyn/metdyn02_Remi
                                           /10_MOL/05_MOL/aUKBqsEOTmq69kFe5R_nOg
                                           /5k_set_final_qzvp/LEHNIW/mini-SZV/GW
                                           +BSE/RILIM
