 DBCSR| CPU Multiplication driver                                           BLAS (U)
 DBCSR| Multrec recursion limit                                              512 (U)
 DBCSR| Multiplication stack size                                           1000 (D)
 DBCSR| Maximum elements for images                                    UNLIMITED (U)
 DBCSR| Multiplicative factor virtual images                                   1 (U)
 DBCSR| Use multiplication densification                                       T (D)
 DBCSR| Multiplication size stacks                                             3 (U)
 DBCSR| Use memory pool for CPU allocation                                     F (U)
 DBCSR| Number of 3D layers                                               SINGLE (U)
 DBCSR| Use MPI memory allocation                                              F (U)
 DBCSR| Use RMA algorithm                                                      F (U)
 DBCSR| Use Communication thread                                               T (U)
 DBCSR| Communication thread load                                             75 (D)
 DBCSR| MPI: My process id                                                     0
 DBCSR| MPI: Number of processes                                              96
 DBCSR| OMP: Current number of threads                                         4
 DBCSR| OMP: Max number of threads                                             4
 DBCSR| Split modifier for TAS multiplication algorithm                  1.0E+00 (U)


  **** **** ******  **  PROGRAM STARTED AT               2025-04-28 04:39:11.568
 ***** ** ***  *** **   PROGRAM STARTED ON                          i03r02c01s04
 **    ****   ******    PROGRAM STARTED BY                               di38fab
 ***** **    ** ** **   PROGRAM PROCESS ID                               1468814
  **** **  *******  **  PROGRAM STARTED IN /hppfs/scratch/04/di38fab/07_MOL_non_
                                           aug/05_MOL_non_aug/05_MOL/W4-11+ALK/c
                                           2h3f/TZVPP/TDDFT

 CP2K| version string:                 CP2K version 2025.1 (Development Version)
 CP2K| source code revision number:                             unknown revision
 CP2K| cp2kflags: omp libint fftw3 libxc parallel scalapack max_contr=4         
 CP2K| is freely available from                            https://www.cp2k.org/
 CP2K| Program compiled at                         Thu Apr 10 16:20:23 CEST 2025
 CP2K| Program compiled on                                               login01
 CP2K| Program compiled for                                        Supermuc-foss
 CP2K| Data directory path                  /hppfs/work/pn36zo/di38fab/cp2k/data
 CP2K| Input file name                                                    GW.inp

 GLOBAL| Force Environment number                                              1
 GLOBAL| Basis set file name            /hppfs/scratch/04/di38fab/04_TMD/BASIS_A
 GLOBAL| Potential file name            /hppfs/work/pn36zo/di38fab/cp2k/data/ALL
 GLOBAL| MM Potential file name                                     MM_POTENTIAL
 GLOBAL| Coordinate file name                                      __STD_INPUT__
 GLOBAL| Method name                                                        CP2K
 GLOBAL| Project name                                                       MoS2
 GLOBAL| Run type                                                         ENERGY
 GLOBAL| FFT library                                                       FFTW3
 GLOBAL| Diagonalization library                                       ScaLAPACK
 GLOBAL| DGEMM library                                                      BLAS
 GLOBAL| Orthonormality check for eigenvectors                          DISABLED
 GLOBAL| Matrix multiplication library                                 ScaLAPACK
 GLOBAL| All-to-all communication in single precision                          F
 GLOBAL| FFTs using library dependent lengths                                  F
 GLOBAL| Grid backend                                                       AUTO
 GLOBAL| Global print level                                               MEDIUM
 GLOBAL| MPI I/O enabled                                                       T
 GLOBAL| Total number of message passing processes                            96
 GLOBAL| Number of threads for this process                                    4
 GLOBAL| This output is from process                                           0
 GLOBAL| OpenMP stack size per thread (OMP_STACKSIZE)                    default
 GLOBAL| CPU model name             Intel(R) Xeon(R) Platinum 8174 CPU @ 3.10GHz

 MEMORY| system memory details [Kb]
 MEMORY|                        rank 0           min           max       average
 MEMORY| MemTotal             98436664      98436664      98436708      98436669
 MEMORY| MemFree              85136880      84995404      85213248      85110490
 MEMORY| Buffers                     0             0             0             0
 MEMORY| Cached                2396556       2384716       2396556       2388768
 MEMORY| Slab                  1043408       1037992       1068228       1051848
 MEMORY| SReclaimable           232932        226252        242056        233866
 MEMORY| MemLikelyFree        87766368      87632084      87825288      87733125


 *** Fundamental physical constants (SI units) ***

 *** Literature: B. J. Mohr and B. N. Taylor,
 ***             CODATA recommended values of the fundamental physical
 ***             constants: 2006, Web Version 5.1
 ***             http://physics.nist.gov/constants

 Speed of light in vacuum [m/s]                             2.99792458000000E+08
 Magnetic constant or permeability of vacuum [N/A**2]       1.25663706143592E-06
 Electric constant or permittivity of vacuum [F/m]          8.85418781762039E-12
 Planck constant (h) [J*s]                                  6.62606896000000E-34
 Planck constant (h-bar) [J*s]                              1.05457162825177E-34
 Elementary charge [C]                                      1.60217648700000E-19
 Electron mass [kg]                                         9.10938215000000E-31
 Electron g factor [ ]                                     -2.00231930436220E+00
 Proton mass [kg]                                           1.67262163700000E-27
 Fine-structure constant                                    7.29735253760000E-03
 Rydberg constant [1/m]                                     1.09737315685270E+07
 Avogadro constant [1/mol]                                  6.02214179000000E+23
 Boltzmann constant [J/K]                                   1.38065040000000E-23
 Atomic mass unit [kg]                                      1.66053878200000E-27
 Bohr radius [m]                                            5.29177208590000E-11

 *** Conversion factors ***

 [u] -> [a.u.]                                              1.82288848426455E+03
 [Angstrom] -> [Bohr] = [a.u.]                              1.88972613288564E+00
 [a.u.] = [Bohr] -> [Angstrom]                              5.29177208590000E-01
 [a.u.] -> [s]                                              2.41888432650478E-17
 [a.u.] -> [fs]                                             2.41888432650478E-02
 [a.u.] -> [J]                                              4.35974393937059E-18
 [a.u.] -> [N]                                              8.23872205491840E-08
 [a.u.] -> [K]                                              3.15774647902944E+05
 [a.u.] -> [kJ/mol]                                         2.62549961709828E+03
 [a.u.] -> [kcal/mol]                                       6.27509468713739E+02
 [a.u.] -> [Pa]                                             2.94210107994716E+13
 [a.u.] -> [bar]                                            2.94210107994716E+08
 [a.u.] -> [atm]                                            2.90362800883016E+08
 [a.u.] -> [eV]                                             2.72113838565563E+01
 [a.u.] -> [Hz]                                             6.57968392072181E+15
 [a.u.] -> [1/cm] (wave numbers)                            2.19474631370540E+05
 [a.u./Bohr**2] -> [1/cm]                                   5.14048714338585E+03
 

 CELL_TOP| Volume [angstrom^3]:                                     27000.000000
 CELL_TOP| Vector a [angstrom    30.000     0.000     0.000   |a| =    30.000000
 CELL_TOP| Vector b [angstrom     0.000    30.000     0.000   |b| =    30.000000
 CELL_TOP| Vector c [angstrom     0.000     0.000    30.000   |c| =    30.000000
 CELL_TOP| Angle (b,c), alpha [degree]:                                90.000000
 CELL_TOP| Angle (a,c), beta  [degree]:                                90.000000
 CELL_TOP| Angle (a,b), gamma [degree]:                                90.000000
 CELL_TOP| Numerically orthorhombic:                                         YES
 CELL_TOP| Periodicity                                                      NONE

 GENERATE|  Preliminary Number of Bonds generated:                             0
 GENERATE|  Achieved consistency in connectivity generation.

 CELL| Volume [angstrom^3]:                                         27000.000000
 CELL| Vector a [angstrom]:      30.000     0.000     0.000   |a| =    30.000000
 CELL| Vector b [angstrom]:       0.000    30.000     0.000   |b| =    30.000000
 CELL| Vector c [angstrom]:       0.000     0.000    30.000   |c| =    30.000000
 CELL| Angle (b,c), alpha [degree]:                                    90.000000
 CELL| Angle (a,c), beta  [degree]:                                    90.000000
 CELL| Angle (a,b), gamma [degree]:                                    90.000000
 CELL| Numerically orthorhombic:                                             YES
 CELL| Periodicity                                                          NONE

 CELL_REF| Volume [angstrom^3]:                                     27000.000000
 CELL_REF| Vector a [angstrom    30.000     0.000     0.000   |a| =    30.000000
 CELL_REF| Vector b [angstrom     0.000    30.000     0.000   |b| =    30.000000
 CELL_REF| Vector c [angstrom     0.000     0.000    30.000   |c| =    30.000000
 CELL_REF| Angle (b,c), alpha [degree]:                                90.000000
 CELL_REF| Angle (a,c), beta  [degree]:                                90.000000
 CELL_REF| Angle (a,b), gamma [degree]:                                90.000000
 CELL_REF| Numerically orthorhombic:                                         YES
 CELL_REF| Periodicity                                                      NONE

 *******************************************************************************
 *******************************************************************************
 **                                                                           **
 **     #####                         ##              ##                      **
 **    ##   ##            ##          ##              ##                      **
 **   ##     ##                       ##            ######                    **
 **   ##     ##  ##   ##  ##   #####  ##  ##   ####   ##    #####    #####    **
 **   ##     ##  ##   ##  ##  ##      ## ##   ##      ##   ##   ##  ##   ##   **
 **   ##  ## ##  ##   ##  ##  ##      ####     ###    ##   ######   ######    **
 **    ##  ###   ##   ##  ##  ##      ## ##      ##   ##   ##       ##        **
 **     #######   #####   ##   #####  ##  ##  ####    ##    #####   ##        **
 **           ##                                                    ##        **
 **                                                                           **
 **                                                ... make the atoms dance   **
 **                                                                           **
 **            Copyright (C) by CP2K developers group (2000-2025)             **
 **                      J. Chem. Phys. 152, 194103 (2020)                    **
 **                                                                           **
 *******************************************************************************

 DFT| Spin restricted Kohn-Sham (RKS) calculation                            RKS
 DFT| Multiplicity                                                             1
 DFT| Number of spin states                                                    1
 DFT| Charge                                                                   0
 DFT| Self-interaction correction (SIC)                                       NO
 DFT| Cutoffs: density                                              1.000000E-10
 DFT|          gradient                                             1.000000E-10
 DFT|          tau                                                  1.000000E-10
 DFT|          cutoff_smoothing_range                               0.000000E+00
 DFT| XC density smoothing                                                  NONE
 DFT| XC derivatives                                                          PW

 FUNCTIONAL| PBE:
 FUNCTIONAL| J.P.Perdew, K.Burke, M.Ernzerhof, Phys. Rev. Letter, vol. 77, n 18,
 FUNCTIONAL|  pp. 3865-3868, (1996)sx=0.750sc=1.000{spin unpolarized}           


 QS| Method:                                                                GAPW
 QS| Density plane wave grid type                        NON-SPHERICAL FULLSPACE
 QS| Number of grid levels:                                                    4
 QS| Density cutoff [a.u.]:                                                250.0
 QS| Multi grid cutoff [a.u.]: 1) grid level                               250.0
 QS|                           2) grid level                                83.3
 QS|                           3) grid level                                27.8
 QS|                           4) grid level                                 9.3
 QS| Grid level progression factor:                                          3.0
 QS| Relative density cutoff [a.u.]:                                        50.0
 QS| Interaction thresholds: eps_pgf_orb:                                1.0E-12
 QS|                         eps_filter_matrix:                          0.0E+00
 QS|                         eps_core_charge:                            1.0E-14
 QS|                         eps_rho_gspace:                             1.0E-12
 QS|                         eps_rho_rspace:                             1.0E-12
 QS|                         eps_gvg_rspace:                             1.0E-06
 QS|                         eps_ppl:                                    1.0E-02
 QS|                         eps_ppnl:                                   1.0E-08
 QS| GAPW|      One center basis from orbital basis primitives
 QS| GAPW|                   eps_fit:                                    1.0E-04
 QS| GAPW|                   eps_iso:                                    1.0E-12
 QS| GAPW|                   eps_svd:                                    1.0E-08
 QS| GAPW|                   eps_cpc:                                    1.0E-12
 QS| GAPW|   atom-r-grid: quadrature:                                     GC_LOG
 QS| GAPW|      atom-s-grid:  max l :                                          6
 QS| GAPW|      max_l_rho0 :                                                   2


 ATOMIC KIND INFORMATION

  1. Atomic kind: C                                     Number of atoms:       2

     Orbital Basis Set                                       TZVPP-MOLOPT-GGA-ae

       Number of orbital shell sets:                                           2
       Number of orbital shells:                                              11
       Number of primitive Cartesian functions:                               12
       Number of Cartesian basis functions:                                   36
       Number of spherical basis functions:                                   31
       Norm type:                                                              2

       Normalised Cartesian orbitals:

                        Set   Shell   Orbital            Exponent    Coefficient

                          1       1    1s               34.417212       0.637474
                                                         6.739673       1.752510
                                                         2.441624       0.446183
                                                         0.806764       0.003692
                                                         0.283960       0.027513
                                                         0.097098       0.019281

                          1       2    2s               34.417212       1.102934
                                                         6.739673      -0.288836
                                                         2.441624      -0.104551
                                                         0.806764       0.362633
                                                         0.283960       0.094997
                                                         0.097098       0.029117

                          1       3    3s               34.417212      -6.120053
                                                         6.739673      -0.168746
                                                         2.441624      -0.199197
                                                         0.806764      -0.252838
                                                         0.283960       0.169545
                                                         0.097098       0.047046

                          1       4    4s               34.417212      -3.786931
                                                         6.739673      -0.401007
                                                         2.441624      -0.053941
                                                         0.806764       0.091223
                                                         0.283960      -0.341415
                                                         0.097098       0.188374

                          1       5    2px              34.417212       2.016536
                                                         6.739673       2.243109
                                                         2.441624       0.695625
                                                         0.806764       0.779023
                                                         0.283960       0.032186
                                                         0.097098       0.005087
                          1       5    2py              34.417212       2.016536
                                                         6.739673       2.243109
                                                         2.441624       0.695625
                                                         0.806764       0.779023
                                                         0.283960       0.032186
                                                         0.097098       0.005087
                          1       5    2pz              34.417212       2.016536
                                                         6.739673       2.243109
                                                         2.441624       0.695625
                                                         0.806764       0.779023
                                                         0.283960       0.032186
                                                         0.097098       0.005087

                          1       6    3px              34.417212       1.690366
                                                         6.739673      -2.720242
                                                         2.441624       0.912249
                                                         0.806764      -0.188640
                                                         0.283960       0.294367
                                                         0.097098       0.008084
                          1       6    3py              34.417212       1.690366
                                                         6.739673      -2.720242
                                                         2.441624       0.912249
                                                         0.806764      -0.188640
                                                         0.283960       0.294367
                                                         0.097098       0.008084
                          1       6    3pz              34.417212       1.690366
                                                         6.739673      -2.720242
                                                         2.441624       0.912249
                                                         0.806764      -0.188640
                                                         0.283960       0.294367
                                                         0.097098       0.008084

                          1       7    4px              34.417212     -12.705833
                                                         6.739673       1.761645
                                                         2.441624      -0.855991
                                                         0.806764      -0.070055
                                                         0.283960      -0.017243
                                                         0.097098       0.081068
                          1       7    4py              34.417212     -12.705833
                                                         6.739673       1.761645
                                                         2.441624      -0.855991
                                                         0.806764      -0.070055
                                                         0.283960      -0.017243
                                                         0.097098       0.081068
                          1       7    4pz              34.417212     -12.705833
                                                         6.739673       1.761645
                                                         2.441624      -0.855991
                                                         0.806764      -0.070055
                                                         0.283960      -0.017243
                                                         0.097098       0.081068

                          1       8    3dx2             34.417212     174.894573
                                                         6.739673       4.248634
                                                         2.441624       3.763414
                                                         0.806764       0.546922
                                                         0.283960       0.015501
                                                         0.097098       0.001415
                          1       8    3dxy             34.417212     302.926287
                                                         6.739673       7.358850
                                                         2.441624       6.518424
                                                         0.806764       0.947296
                                                         0.283960       0.026849
                                                         0.097098       0.002451
                          1       8    3dxz             34.417212     302.926287
                                                         6.739673       7.358850
                                                         2.441624       6.518424
                                                         0.806764       0.947296
                                                         0.283960       0.026849
                                                         0.097098       0.002451
                          1       8    3dy2             34.417212     174.894573
                                                         6.739673       4.248634
                                                         2.441624       3.763414
                                                         0.806764       0.546922
                                                         0.283960       0.015501
                                                         0.097098       0.001415
                          1       8    3dyz             34.417212     302.926287
                                                         6.739673       7.358850
                                                         2.441624       6.518424
                                                         0.806764       0.947296
                                                         0.283960       0.026849
                                                         0.097098       0.002451
                          1       8    3dz2             34.417212     174.894573
                                                         6.739673       4.248634
                                                         2.441624       3.763414
                                                         0.806764       0.546922
                                                         0.283960       0.015501
                                                         0.097098       0.001415

                          1       9    4dx2             34.417212    -164.169372
                                                         6.739673      -4.401044
                                                         2.441624      -2.510108
                                                         0.806764       0.323683
                                                         0.283960       0.139703
                                                         0.097098       0.001225
                          1       9    4dxy             34.417212    -284.349694
                                                         6.739673      -7.622831
                                                         2.441624      -4.347634
                                                         0.806764       0.560636
                                                         0.283960       0.241972
                                                         0.097098       0.002122
                          1       9    4dxz             34.417212    -284.349694
                                                         6.739673      -7.622831
                                                         2.441624      -4.347634
                                                         0.806764       0.560636
                                                         0.283960       0.241972
                                                         0.097098       0.002122
                          1       9    4dy2             34.417212    -164.169372
                                                         6.739673      -4.401044
                                                         2.441624      -2.510108
                                                         0.806764       0.323683
                                                         0.283960       0.139703
                                                         0.097098       0.001225
                          1       9    4dyz             34.417212    -284.349694
                                                         6.739673      -7.622831
                                                         2.441624      -4.347634
                                                         0.806764       0.560636
                                                         0.283960       0.241972
                                                         0.097098       0.002122
                          1       9    4dz2             34.417212    -164.169372
                                                         6.739673      -4.401044
                                                         2.441624      -2.510108
                                                         0.806764       0.323683
                                                         0.283960       0.139703
                                                         0.097098       0.001225

                          1      10    4fx3             34.417212      49.427593
                                                         6.739673      -2.026957
                                                         2.441624       1.033755
                                                         0.806764       0.576468
                                                         0.283960       0.042127
                                                         0.097098      -0.000799
                          1      10    4fx2y            34.417212     110.523457
                                                         6.739673      -4.532415
                                                         2.441624       2.311546
                                                         0.806764       1.289022
                                                         0.283960       0.094199
                                                         0.097098      -0.001786
                          1      10    4fx2z            34.417212     110.523457
                                                         6.739673      -4.532415
                                                         2.441624       2.311546
                                                         0.806764       1.289022
                                                         0.283960       0.094199
                                                         0.097098      -0.001786
                          1      10    4fxy2            34.417212     110.523457
                                                         6.739673      -4.532415
                                                         2.441624       2.311546
                                                         0.806764       1.289022
                                                         0.283960       0.094199
                                                         0.097098      -0.001786
                          1      10    4fxyz            34.417212     191.432243
                                                         6.739673      -7.850372
                                                         2.441624       4.003716
                                                         0.806764       2.232651
                                                         0.283960       0.163158
                                                         0.097098      -0.003093
                          1      10    4fxz2            34.417212     110.523457
                                                         6.739673      -4.532415
                                                         2.441624       2.311546
                                                         0.806764       1.289022
                                                         0.283960       0.094199
                                                         0.097098      -0.001786
                          1      10    4fy3             34.417212      49.427593
                                                         6.739673      -2.026957
                                                         2.441624       1.033755
                                                         0.806764       0.576468
                                                         0.283960       0.042127
                                                         0.097098      -0.000799
                          1      10    4fy2z            34.417212     110.523457
                                                         6.739673      -4.532415
                                                         2.441624       2.311546
                                                         0.806764       1.289022
                                                         0.283960       0.094199
                                                         0.097098      -0.001786
                          1      10    4fyz2            34.417212     110.523457
                                                         6.739673      -4.532415
                                                         2.441624       2.311546
                                                         0.806764       1.289022
                                                         0.283960       0.094199
                                                         0.097098      -0.001786
                          1      10    4fz3             34.417212      49.427593
                                                         6.739673      -2.026957
                                                         2.441624       1.033755
                                                         0.806764       0.576468
                                                         0.283960       0.042127
                                                         0.097098      -0.000799

                          2       1    1s            13575.369584       0.323227
                                                      2035.237517       2.062509
                                                       463.111112       2.210797
                                                       131.318553       4.954487
                                                        42.899593       1.730189
                                                        15.855102       4.257999

     RI Auxiliary Basis Set                                    aug-cc-pV5Z-RIFIT

       Number of orbital shell sets:                                          46
       Number of orbital shells:                                              46
       Number of primitive Cartesian functions:                               46
       Number of Cartesian basis functions:                                  371
       Number of spherical basis functions:                                  242
       Norm type:                                                              2

       Normalised Cartesian orbitals:

                        Set   Shell   Orbital            Exponent    Coefficient

                          1       1    1s                0.062545       0.089136

                          2       1    1dx2              0.084789       0.021928
                          2       1    1dxy              0.084789       0.037981
                          2       1    1dxz              0.084789       0.037981
                          2       1    1dy2              0.084789       0.021928
                          2       1    1dyz              0.084789       0.037981
                          2       1    1dz2              0.084789       0.021928

                          3       1    1px               0.090000       0.070266
                          3       1    1py               0.090000       0.070266
                          3       1    1pz               0.090000       0.070266

                          4       1    1s                0.118498       0.143944

                          5       1    1fx3              0.135351       0.016358
                          5       1    1fx2y             0.135351       0.036579
                          5       1    1fx2z             0.135351       0.036579
                          5       1    1fxy2             0.135351       0.036579
                          5       1    1fxyz             0.135351       0.063356
                          5       1    1fxz2             0.135351       0.036579
                          5       1    1fy3              0.135351       0.016358
                          5       1    1fy2z             0.135351       0.036579
                          5       1    1fyz2             0.135351       0.036579
                          5       1    1fz3              0.135351       0.016358

                          6       1    1dx2              0.211749       0.108792
                          6       1    1dxy              0.211749       0.188433
                          6       1    1dxz              0.211749       0.188433
                          6       1    1dy2              0.211749       0.108792
                          6       1    1dyz              0.211749       0.188433
                          6       1    1dz2              0.211749       0.108792

                          7       1    1px               0.223793       0.219406
                          7       1    1py               0.223793       0.219406
                          7       1    1pz               0.223793       0.219406

                          8       1    1gx4              0.241717       0.022415
                          8       1    1gx3y             0.241717       0.059303
                          8       1    1gx3z             0.241717       0.059303
                          8       1    1gx2y2            0.241717       0.076560
                          8       1    1gx2yz            0.241717       0.132606
                          8       1    1gx2z2            0.241717       0.076560
                          8       1    1gxy3             0.241717       0.059303
                          8       1    1gxy2z            0.241717       0.132606
                          8       1    1gxyz2            0.241717       0.132606
                          8       1    1gxz3             0.241717       0.059303
                          8       1    1gy4              0.241717       0.022415
                          8       1    1gy3z             0.241717       0.059303
                          8       1    1gy2z2            0.241717       0.076560
                          8       1    1gyz3             0.241717       0.059303
                          8       1    1gz4              0.241717       0.022415

                          9       1    1s                0.257433       0.257578

                         10       1    1fx3              0.334627       0.125377
                         10       1    1fx2y             0.334627       0.280351
                         10       1    1fx2z             0.334627       0.280351
                         10       1    1fxy2             0.334627       0.280351
                         10       1    1fxyz             0.334627       0.485582
                         10       1    1fxz2             0.334627       0.280351
                         10       1    1fy3              0.334627       0.125377
                         10       1    1fy2z             0.334627       0.280351
                         10       1    1fyz2             0.334627       0.280351
                         10       1    1fz3              0.334627       0.125377

                         11       1    1px               0.353612       0.388686
                         11       1    1py               0.353612       0.388686
                         11       1    1pz               0.353612       0.388686

                         12       1    1dx2              0.413013       0.350224
                         12       1    1dxy              0.413013       0.606606
                         12       1    1dxz              0.413013       0.606606
                         12       1    1dy2              0.413013       0.350224
                         12       1    1dyz              0.413013       0.606606
                         12       1    1dz2              0.413013       0.350224

                         13       1    1hx5              0.475436       0.066205
                         13       1    1hx4y             0.475436       0.198616
                         13       1    1hx4z             0.475436       0.198616
                         13       1    1hx3y2            0.475436       0.303391
                         13       1    1hx3yz            0.475436       0.525489
                         13       1    1hx3z2            0.475436       0.303391
                         13       1    1hx2y3            0.475436       0.303391
                         13       1    1hx2y2z           0.475436       0.678403
                         13       1    1hx2yz2           0.475436       0.678403
                         13       1    1hx2z3            0.475436       0.303391
                         13       1    1hxy4             0.475436       0.198616
                         13       1    1hxy3z            0.475436       0.525489
                         13       1    1hxy2z2           0.475436       0.678403
                         13       1    1hxyz3            0.475436       0.525489
                         13       1    1hxz4             0.475436       0.198616
                         13       1    1hy5              0.475436       0.066205
                         13       1    1hy4z             0.475436       0.198616
                         13       1    1hy3z2            0.475436       0.303391
                         13       1    1hy2z3            0.475436       0.303391
                         13       1    1hyz4             0.475436       0.198616
                         13       1    1hz5              0.475436       0.066205

                         14       1    1s                0.555806       0.458778

                         15       1    1gx4              0.593235       0.264734
                         15       1    1gx3y             0.593235       0.700419
                         15       1    1gx3z             0.593235       0.700419
                         15       1    1gx2y2            0.593235       0.904237
                         15       1    1gx2yz            0.593235       1.566185
                         15       1    1gx2z2            0.593235       0.904237
                         15       1    1gxy3             0.593235       0.700419
                         15       1    1gxy2z            0.593235       1.566185
                         15       1    1gxyz2            0.593235       1.566185
                         15       1    1gxz3             0.593235       0.700419
                         15       1    1gy4              0.593235       0.264734
                         15       1    1gy3z             0.593235       0.700419
                         15       1    1gy2z2            0.593235       0.904237
                         15       1    1gyz3             0.593235       0.700419
                         15       1    1gz4              0.593235       0.264734

                         16       1    1fx3              0.603184       0.472027
                         16       1    1fx2y             0.603184       1.055484
                         16       1    1fx2z             0.603184       1.055484
                         16       1    1fxy2             0.603184       1.055484
                         16       1    1fxyz             0.603184       1.828151
                         16       1    1fxz2             0.603184       1.055484
                         16       1    1fy3              0.603184       0.472027
                         16       1    1fy2z             0.603184       1.055484
                         16       1    1fyz2             0.603184       1.055484
                         16       1    1fz3              0.603184       0.472027

                         17       1    1px               0.705145       0.921060
                         17       1    1py               0.705145       0.921060
                         17       1    1pz               0.705145       0.921060

                         18       1    1dx2              0.759964       1.018116
                         18       1    1dxy              0.759964       1.763429
                         18       1    1dxz              0.759964       1.763429
                         18       1    1dy2              0.759964       1.018116
                         18       1    1dyz              0.759964       1.763429
                         18       1    1dz2              0.759964       1.018116

                         19       1    1ix6              0.833067       0.225542
                         19       1    1ix5y             0.833067       0.748038
                         19       1    1ix5z             0.833067       0.748038
                         19       1    1ix4y2            0.833067       1.295641
                         19       1    1ix4yz            0.833067       2.244115
                         19       1    1ix4z2            0.833067       1.295641
                         19       1    1ix3y3            0.833067       1.533023
                         19       1    1ix3y2z           0.833067       3.427943
                         19       1    1ix3yz2           0.833067       3.427943
                         19       1    1ix3z3            0.833067       1.533023
                         19       1    1ix2y4            0.833067       1.295641
                         19       1    1ix2y3z           0.833067       3.427943
                         19       1    1ix2y2z2          0.833067       4.425455
                         19       1    1ix2yz3           0.833067       3.427943
                         19       1    1ix2z4            0.833067       1.295641
                         19       1    1ixy5             0.833067       0.748038
                         19       1    1ixy4z            0.833067       2.244115
                         19       1    1ixy3z2           0.833067       3.427943
                         19       1    1ixy2z3           0.833067       3.427943
                         19       1    1ixyz4            0.833067       2.244115
                         19       1    1ixz5             0.833067       0.748038
                         19       1    1iy6              0.833067       0.225542
                         19       1    1iy5z             0.833067       0.748038
                         19       1    1iy4z2            0.833067       1.295641
                         19       1    1iy3z3            0.833067       1.533023
                         19       1    1iy2z4            0.833067       1.295641
                         19       1    1iyz5             0.833067       0.748038
                         19       1    1iz6              0.833067       0.225542

                         20       1    1hx5              0.860125       0.454642
                         20       1    1hx4y             0.860125       1.363925
                         20       1    1hx4z             0.860125       1.363925
                         20       1    1hx3y2            0.860125       2.083430
                         20       1    1hx3yz            0.860125       3.608607
                         20       1    1hx3z2            0.860125       2.083430
                         20       1    1hx2y3            0.860125       2.083430
                         20       1    1hx2y2z           0.860125       4.658691
                         20       1    1hx2yz2           0.860125       4.658691
                         20       1    1hx2z3            0.860125       2.083430
                         20       1    1hxy4             0.860125       1.363925
                         20       1    1hxy3z            0.860125       3.608607
                         20       1    1hxy2z2           0.860125       4.658691
                         20       1    1hxyz3            0.860125       3.608607
                         20       1    1hxz4             0.860125       1.363925
                         20       1    1hy5              0.860125       0.454642
                         20       1    1hy4z             0.860125       1.363925
                         20       1    1hy3z2            0.860125       2.083430
                         20       1    1hy2z3            0.860125       2.083430
                         20       1    1hyz4             0.860125       1.363925
                         20       1    1hz5              0.860125       0.454642

                         21       1    1s                0.944763       0.682971

                         22       1    1gx4              1.023150       1.185137
                         22       1    1gx3y             1.023150       3.135578
                         22       1    1gx3z             1.023150       3.135578
                         22       1    1gx2y2            1.023150       4.048013
                         22       1    1gx2yz            1.023150       7.011365
                         22       1    1gx2z2            1.023150       4.048013
                         22       1    1gxy3             1.023150       3.135578
                         22       1    1gxy2z            1.023150       7.011365
                         22       1    1gxyz2            1.023150       7.011365
                         22       1    1gxz3             1.023150       3.135578
                         22       1    1gy4              1.023150       1.185137
                         22       1    1gy3z             1.023150       3.135578
                         22       1    1gy2z2            1.023150       4.048013
                         22       1    1gyz3             1.023150       3.135578
                         22       1    1gz4              1.023150       1.185137

                         23       1    1fx3              1.114180       1.877604
                         23       1    1fx2y             1.114180       4.198450
                         23       1    1fx2z             1.114180       4.198450
                         23       1    1fxy2             1.114180       4.198450
                         23       1    1fxyz             1.114180       7.271929
                         23       1    1fxz2             1.114180       4.198450
                         23       1    1fy3              1.114180       1.877604
                         23       1    1fy2z             1.114180       4.198450
                         23       1    1fyz2             1.114180       4.198450
                         23       1    1fz3              1.114180       1.877604

                         24       1    1px               1.420590       2.210681
                         24       1    1py               1.420590       2.210681
                         24       1    1pz               1.420590       2.210681

                         25       1    1hx5              1.508080       2.819833
                         25       1    1hx4y             1.508080       8.459499
                         25       1    1hx4z             1.508080       8.459499
                         25       1    1hx3y2            1.508080      12.922099
                         25       1    1hx3yz            1.508080      22.381731
                         25       1    1hx3z2            1.508080      12.922099
                         25       1    1hx2y3            1.508080      12.922099
                         25       1    1hx2y2z           1.508080      28.894691
                         25       1    1hx2yz2           1.508080      28.894691
                         25       1    1hx2z3            1.508080      12.922099
                         25       1    1hxy4             1.508080       8.459499
                         25       1    1hxy3z            1.508080      22.381731
                         25       1    1hxy2z2           1.508080      28.894691
                         25       1    1hxyz3            1.508080      22.381731
                         25       1    1hxz4             1.508080       8.459499
                         25       1    1hy5              1.508080       2.819833
                         25       1    1hy4z             1.508080       8.459499
                         25       1    1hy3z2            1.508080      12.922099
                         25       1    1hy2z3            1.508080      12.922099
                         25       1    1hyz4             1.508080       8.459499
                         25       1    1hz5              1.508080       2.819833

                         26       1    1dx2              1.639980       3.911803
                         26       1    1dxy              1.639980       6.775441
                         26       1    1dxz              1.639980       6.775441
                         26       1    1dy2              1.639980       3.911803
                         26       1    1dyz              1.639980       6.775441
                         26       1    1dz2              1.639980       3.911803

                         27       1    1s                1.697980       1.060131

                         28       1    1ix6              1.702580       3.291024
                         28       1    1ix5y             1.702580      10.915092
                         28       1    1ix5z             1.702580      10.915092
                         28       1    1ix4y2            1.702580      18.905493
                         28       1    1ix4yz            1.702580      32.745275
                         28       1    1ix4z2            1.702580      18.905493
                         28       1    1ix3y3            1.702580      22.369282
                         28       1    1ix3y2z           1.702580      50.019234
                         28       1    1ix3yz2           1.702580      50.019234
                         28       1    1ix3z3            1.702580      22.369282
                         28       1    1ix2y4            1.702580      18.905493
                         28       1    1ix2y3z           1.702580      50.019234
                         28       1    1ix2y2z2          1.702580      64.574554
                         28       1    1ix2yz3           1.702580      50.019234
                         28       1    1ix2z4            1.702580      18.905493
                         28       1    1ixy5             1.702580      10.915092
                         28       1    1ixy4z            1.702580      32.745275
                         28       1    1ixy3z2           1.702580      50.019234
                         28       1    1ixy2z3           1.702580      50.019234
                         28       1    1ixyz4            1.702580      32.745275
                         28       1    1ixz5             1.702580      10.915092
                         28       1    1iy6              1.702580       3.291024
                         28       1    1iy5z             1.702580      10.915092
                         28       1    1iy4z2            1.702580      18.905493
                         28       1    1iy3z3            1.702580      22.369282
                         28       1    1iy2z4            1.702580      18.905493
                         28       1    1iyz5             1.702580      10.915092
                         28       1    1iz6              1.702580       3.291024

                         29       1    1fx3              2.054360       7.438351
                         29       1    1fx2y             2.054360      16.632659
                         29       1    1fx2z             2.054360      16.632659
                         29       1    1fxy2             2.054360      16.632659
                         29       1    1fxyz             2.054360      28.808611
                         29       1    1fxz2             2.054360      16.632659
                         29       1    1fy3              2.054360       7.438351
                         29       1    1fy2z             2.054360      16.632659
                         29       1    1fyz2             2.054360      16.632659
                         29       1    1fz3              2.054360       7.438351

                         30       1    1gx4              2.155990       9.203732
                         30       1    1gx3y             2.155990      24.350786
                         30       1    1gx3z             2.155990      24.350786
                         30       1    1gx2y2            2.155990      31.436730
                         30       1    1gx2yz            2.155990      54.450013
                         30       1    1gx2z2            2.155990      31.436730
                         30       1    1gxy3             2.155990      24.350786
                         30       1    1gxy2z            2.155990      54.450013
                         30       1    1gxyz2            2.155990      54.450013
                         30       1    1gxz3             2.155990      24.350786
                         30       1    1gy4              2.155990       9.203732
                         30       1    1gy3z             2.155990      24.350786
                         30       1    1gy2z2            2.155990      31.436730
                         30       1    1gyz3             2.155990      24.350786
                         30       1    1gz4              2.155990       9.203732

                         31       1    1px               2.540790       4.572472
                         31       1    1py               2.540790       4.572472
                         31       1    1pz               2.540790       4.572472

                         32       1    1hx5              2.702190      18.768121
                         32       1    1hx4y             2.702190      56.304362
                         32       1    1hx4z             2.702190      56.304362
                         32       1    1hx3y2            2.702190      86.006333
                         32       1    1hx3yz            2.702190     148.967339
                         32       1    1hx3z2            2.702190      86.006333
                         32       1    1hx2y3            2.702190      86.006333
                         32       1    1hx2y2z           2.702190     192.316007
                         32       1    1hx2yz2           2.702190     192.316007
                         32       1    1hx2z3            2.702190      86.006333
                         32       1    1hxy4             2.702190      56.304362
                         32       1    1hxy3z            2.702190     148.967339
                         32       1    1hxy2z2           2.702190     192.316007
                         32       1    1hxyz3            2.702190     148.967339
                         32       1    1hxz4             2.702190      56.304362
                         32       1    1hy5              2.702190      18.768121
                         32       1    1hy4z             2.702190      56.304362
                         32       1    1hy3z2            2.702190      86.006333
                         32       1    1hy2z3            2.702190      86.006333
                         32       1    1hyz4             2.702190      56.304362
                         32       1    1hz5              2.702190      18.768121

                         33       1    1s                2.838270       1.558477

                         34       1    1dx2              3.000150      11.256663
                         34       1    1dxy              3.000150      19.497112
                         34       1    1dxz              3.000150      19.497112
                         34       1    1dy2              3.000150      11.256663
                         34       1    1dyz              3.000150      19.497112
                         34       1    1dz2              3.000150      11.256663

                         35       1    1fx3              3.116540      18.998444
                         35       1    1fx2y             3.116540      42.481813
                         35       1    1fx2z             3.116540      42.481813
                         35       1    1fxy2             3.116540      42.481813
                         35       1    1fxyz             3.116540      73.580658
                         35       1    1fxz2             3.116540      42.481813
                         35       1    1fy3              3.116540      18.998444
                         35       1    1fy2z             3.116540      42.481813
                         35       1    1fyz2             3.116540      42.481813
                         35       1    1fz3              3.116540      18.998444

                         36       1    1gx4              4.244100      59.271490
                         36       1    1gx3y             4.244100     156.817624
                         36       1    1gx3z             4.244100     156.817624
                         36       1    1gx2y2            4.244100     202.450681
                         36       1    1gx2yz            4.244100     350.654866
                         36       1    1gx2z2            4.244100     202.450681
                         36       1    1gxy3             4.244100     156.817624
                         36       1    1gxy2z            4.244100     350.654866
                         36       1    1gxyz2            4.244100     350.654866
                         36       1    1gxz3             4.244100     156.817624
                         36       1    1gy4              4.244100      59.271490
                         36       1    1gy3z             4.244100     156.817624
                         36       1    1gy2z2            4.244100     202.450681
                         36       1    1gyz3             4.244100     156.817624
                         36       1    1gz4              4.244100      59.271490

                         37       1    1dx2              4.999910      27.516506
                         37       1    1dxy              4.999910      47.659986
                         37       1    1dxz              4.999910      47.659986
                         37       1    1dy2              4.999910      27.516506
                         37       1    1dyz              4.999910      47.659986
                         37       1    1dz2              4.999910      27.516506

                         38       1    1px               5.053190      10.799338
                         38       1    1py               5.053190      10.799338
                         38       1    1pz               5.053190      10.799338

                         39       1    1s                6.151790       2.783949

                         40       1    1fx3              7.559750     139.507056
                         40       1    1fx2y             7.559750     311.947262
                         40       1    1fx2z             7.559750     311.947262
                         40       1    1fxy2             7.559750     311.947262
                         40       1    1fxyz             7.559750     540.308506
                         40       1    1fxz2             7.559750     311.947262
                         40       1    1fy3              7.559750     139.507056
                         40       1    1fy2z             7.559750     311.947262
                         40       1    1fyz2             7.559750     311.947262
                         40       1    1fz3              7.559750     139.507056

                         41       1    1dx2             12.844800     143.443975
                         41       1    1dxy             12.844800     248.452253
                         41       1    1dxz             12.844800     248.452253
                         41       1    1dy2             12.844800     143.443975
                         41       1    1dyz             12.844800     248.452253
                         41       1    1dz2             12.844800     143.443975

                         42       1    1s               13.932000       5.139492

                         43       1    1px              14.097200      38.936433
                         43       1    1py              14.097200      38.936433
                         43       1    1pz              14.097200      38.936433

                         44       1    1px              51.517500     196.735876
                         44       1    1py              51.517500     196.735876
                         44       1    1pz              51.517500     196.735876

                         45       1    1s               53.400400      14.078892

                         46       1    1s              247.064000      44.413724

       Atomic covalent radius [Angstrom]:                                  0.770

       Atomic van der Waals radius [Angstrom]:                             1.700

     The atoms of this atomic kind are PAW atoms (GAPW):
       Hard Gaussian function radius:                                      1.512
       Rho0 radius:                                                        1.512
       Maximum GTO radius used for PAW projector construction:            24.566

     GAPW Soft Basis Set                                TZVPP-MOLOPT-GGA-ae_soft

       Number of orbital shell sets:                                           2
       Number of orbital shells:                                              11
       Number of primitive Cartesian functions:                                4
       Number of Cartesian basis functions:                                   36
       Number of spherical basis functions:                                   31
       Norm type:                                                              2

       Normalised Cartesian orbitals:

                        Set   Shell   Orbital            Exponent    Coefficient

                          1       1    1s                2.441624       0.446183
                                                         0.806764       0.003692
                                                         0.283960       0.027513
                                                         0.097098       0.019281

                          1       2    2s                2.441624      -0.104551
                                                         0.806764       0.362633
                                                         0.283960       0.094997
                                                         0.097098       0.029117

                          1       3    3s                2.441624      -0.199197
                                                         0.806764      -0.252838
                                                         0.283960       0.169545
                                                         0.097098       0.047046

                          1       4    4s                2.441624      -0.053941
                                                         0.806764       0.091223
                                                         0.283960      -0.341415
                                                         0.097098       0.188374

                          1       5    2px               2.441624       0.695625
                                                         0.806764       0.779023
                                                         0.283960       0.032186
                                                         0.097098       0.005087
                          1       5    2py               2.441624       0.695625
                                                         0.806764       0.779023
                                                         0.283960       0.032186
                                                         0.097098       0.005087
                          1       5    2pz               2.441624       0.695625
                                                         0.806764       0.779023
                                                         0.283960       0.032186
                                                         0.097098       0.005087

                          1       6    3px               2.441624       0.912249
                                                         0.806764      -0.188640
                                                         0.283960       0.294367
                                                         0.097098       0.008084
                          1       6    3py               2.441624       0.912249
                                                         0.806764      -0.188640
                                                         0.283960       0.294367
                                                         0.097098       0.008084
                          1       6    3pz               2.441624       0.912249
                                                         0.806764      -0.188640
                                                         0.283960       0.294367
                                                         0.097098       0.008084

                          1       7    4px               2.441624      -0.855991
                                                         0.806764      -0.070055
                                                         0.283960      -0.017243
                                                         0.097098       0.081068
                          1       7    4py               2.441624      -0.855991
                                                         0.806764      -0.070055
                                                         0.283960      -0.017243
                                                         0.097098       0.081068
                          1       7    4pz               2.441624      -0.855991
                                                         0.806764      -0.070055
                                                         0.283960      -0.017243
                                                         0.097098       0.081068

                          1       8    3dx2              2.441624       3.763414
                                                         0.806764       0.546922
                                                         0.283960       0.015501
                                                         0.097098       0.001415
                          1       8    3dxy              2.441624       6.518424
                                                         0.806764       0.947296
                                                         0.283960       0.026849
                                                         0.097098       0.002451
                          1       8    3dxz              2.441624       6.518424
                                                         0.806764       0.947296
                                                         0.283960       0.026849
                                                         0.097098       0.002451
                          1       8    3dy2              2.441624       3.763414
                                                         0.806764       0.546922
                                                         0.283960       0.015501
                                                         0.097098       0.001415
                          1       8    3dyz              2.441624       6.518424
                                                         0.806764       0.947296
                                                         0.283960       0.026849
                                                         0.097098       0.002451
                          1       8    3dz2              2.441624       3.763414
                                                         0.806764       0.546922
                                                         0.283960       0.015501
                                                         0.097098       0.001415

                          1       9    4dx2              2.441624      -2.510108
                                                         0.806764       0.323683
                                                         0.283960       0.139703
                                                         0.097098       0.001225
                          1       9    4dxy              2.441624      -4.347634
                                                         0.806764       0.560636
                                                         0.283960       0.241972
                                                         0.097098       0.002122
                          1       9    4dxz              2.441624      -4.347634
                                                         0.806764       0.560636
                                                         0.283960       0.241972
                                                         0.097098       0.002122
                          1       9    4dy2              2.441624      -2.510108
                                                         0.806764       0.323683
                                                         0.283960       0.139703
                                                         0.097098       0.001225
                          1       9    4dyz              2.441624      -4.347634
                                                         0.806764       0.560636
                                                         0.283960       0.241972
                                                         0.097098       0.002122
                          1       9    4dz2              2.441624      -2.510108
                                                         0.806764       0.323683
                                                         0.283960       0.139703
                                                         0.097098       0.001225

                          1      10    4fx3              2.441624       1.033755
                                                         0.806764       0.576468
                                                         0.283960       0.042127
                                                         0.097098      -0.000799
                          1      10    4fx2y             2.441624       2.311546
                                                         0.806764       1.289022
                                                         0.283960       0.094199
                                                         0.097098      -0.001786
                          1      10    4fx2z             2.441624       2.311546
                                                         0.806764       1.289022
                                                         0.283960       0.094199
                                                         0.097098      -0.001786
                          1      10    4fxy2             2.441624       2.311546
                                                         0.806764       1.289022
                                                         0.283960       0.094199
                                                         0.097098      -0.001786
                          1      10    4fxyz             2.441624       4.003716
                                                         0.806764       2.232651
                                                         0.283960       0.163158
                                                         0.097098      -0.003093
                          1      10    4fxz2             2.441624       2.311546
                                                         0.806764       1.289022
                                                         0.283960       0.094199
                                                         0.097098      -0.001786
                          1      10    4fy3              2.441624       1.033755
                                                         0.806764       0.576468
                                                         0.283960       0.042127
                                                         0.097098      -0.000799
                          1      10    4fy2z             2.441624       2.311546
                                                         0.806764       1.289022
                                                         0.283960       0.094199
                                                         0.097098      -0.001786
                          1      10    4fyz2             2.441624       2.311546
                                                         0.806764       1.289022
                                                         0.283960       0.094199
                                                         0.097098      -0.001786
                          1      10    4fz3              2.441624       1.033755
                                                         0.806764       0.576468
                                                         0.283960       0.042127
                                                         0.097098      -0.000799

                          2       1    1s         

     AE Potential information for                                            ALL

       Description:                                       All-electron potential
                                          Krack, Parrinello, PCCP 2, 2105 (2000)

       Gaussian exponent of the core charge distribution:               4.109048
       Electronic configuration (s p d ...):                           4   2   0

  2. Atomic kind: H                                     Number of atoms:       3

     Orbital Basis Set                                       TZVPP-MOLOPT-GGA-ae

       Number of orbital shell sets:                                           1
       Number of orbital shells:                                               6
       Number of primitive Cartesian functions:                                5
       Number of Cartesian basis functions:                                   15
       Number of spherical basis functions:                                   14
       Norm type:                                                              2

       Normalised Cartesian orbitals:

                        Set   Shell   Orbital            Exponent    Coefficient

                          1       1    1s               34.177738      -6.423540
                                                         4.947701      -0.270539
                                                         1.065127       0.831136
                                                         0.293823      -0.051765
                                                         0.091371      -0.049397

                          1       2    2s               34.177738       3.211471
                                                         4.947701       0.528758
                                                         1.065127       0.154529
                                                         0.293823       0.227881
                                                         0.091371      -0.041080

                          1       3    3s               34.177738      -1.131577
                                                         4.947701      -0.040048
                                                         1.065127       0.164523
                                                         0.293823       0.077306
                                                         0.091371       0.076395

                          1       4    2px              34.177738     -11.084238
                                                         4.947701       1.341091
                                                         1.065127       1.416453
                                                         0.293823      -0.007684
                                                         0.091371       0.008886
                          1       4    2py              34.177738     -11.084238
                                                         4.947701       1.341091
                                                         1.065127       1.416453
[...]
 fft_wrap_pw1pw2                   6615 10.5    0.130    0.162  203.818  208.541
 fhxc_kernel                          7  8.0    0.007    0.008  208.340  208.340
 fft_wrap_pw1pw2_250               4683 11.8    8.141    9.554  196.386  201.329
 pw_poisson_solve                   411  8.7    5.302    6.796  196.918  197.355
 fft3d_ps                          6615 12.5   72.105   90.319  168.761  175.011
 ps_wavelet_solve                   411  9.7   92.134  105.806  117.888  119.526
 qs_rho_update_rho_low              413  6.4    0.004    0.005  105.456  105.476
 calculate_rho_elec                 413  7.4    2.008    2.384  103.637  103.641
 mp_alltoall_d54                    411 10.7   14.987   90.670   14.987   90.670
 mp_alltoall_z22v                  6615 14.5   82.299   89.146   82.299   89.146
 xc_pw_derive                      1929 11.0    0.022    0.028   86.137   86.774
 tddfpt_apply_coulomb               140  9.0    0.003    0.004   84.546   85.213
 integrate_four_center              551  9.5   13.337   25.428   71.235   71.411
 density_rs2pw                      413  8.4    0.025    0.030   68.814   70.807
 qs_vxc_create                      271  8.0    0.003    0.003   60.336   60.337
 hfx_ks_matrix                      271  8.0    0.010    0.012   56.764   56.868
 prepare_gapw_den                   412  8.3    0.008    0.010   53.223   53.725
 x_to_yz                           2984 13.8    8.755   10.140   50.245   52.179
 yz_to_x                           2987 13.4    4.876    5.800   45.635   49.961
 tddfpt_apply_xc_analytic           140  9.0    0.199    0.263   46.851   47.480
 mp_sync                           3081 11.4   32.328   46.584   32.328   46.584
 init_scf_loop                        1  4.0    0.000    0.000   44.735   44.735
 xc_pw_divergence                   231 10.6    0.010    0.012   42.682   43.417
 transfer_rs2pw                    2065  9.6    0.055    0.092   42.002   43.164
 xc_rho_set_and_dset_create         272 10.0    0.649    0.816   38.248   42.613
 integrate_v_rspace                 231  9.0    0.006    0.007   34.715   34.991
 put_rho0_on_grid                   412  9.3    2.041    2.478   34.277   34.782
 transfer_pw2rs                    1336 10.6    0.021    0.026   33.196   33.783
 potential_pw2rs                    231 10.0    0.080    0.087   33.436   33.702
 grid_collocate_task_list           413  8.4   31.195   32.912   31.195   32.912
 xc_vxc_pw_create                    91  9.0    0.590    0.707   31.490   31.491
 mp_alltoall_d11v                 15398 11.9   20.506   31.151   20.506   31.151
 mp_waitany                       63390 12.0   27.673   30.714   27.673   30.714
 xc_exc_calc                        180  9.0    0.873    1.036   28.843   28.843
 xc_calc_2nd_deriv_analytical       700 10.1    1.673    1.791   27.814   27.892
 integrate_four_center_main         551 10.5    0.445   13.787    3.739   26.449
 transfer_rs2pw_250                 826 10.8   10.632   11.347   24.635   25.912
 integrate_four_center_bin        45146 11.5    3.294   24.721    3.294   24.721
 transfer_pw2rs_250                 643 11.2    7.627    8.473   21.460   22.093
 integrate_vhg0_rspace              411  8.7    0.520    0.596   19.964   20.460
 calc_screening_functions             1 10.0   16.680   18.100   17.106   18.526
 calculate_rho_atom                1236  9.3    3.550   18.133    3.550   18.133
 mp_alltoall_d45                    412 10.7    9.834   17.433    9.834   17.433
 mp_sum_d                         10207  9.8   14.265   16.791   14.265   16.791
 tddfpt_apply_hfx                     7  8.0    0.003    0.003   16.139   16.139
 mp_sum_dv                        27304 10.9   14.921   15.404   14.921   15.404
 tddft_hfx_matrix                   280  9.0    0.007    0.008   14.495   14.578
 sum_up_and_integrate                91  8.0    0.001    0.002   13.127   13.160
 pw_scatter_p                      3215 12.8   11.505   11.844   11.505   11.844
 pw_gather_p                       3400 12.3    9.319   10.423    9.319   10.423
 cp2k_distribution_to_z_slices      411  9.7    3.966    4.286    9.776   10.320
 pw_derive                         3162 11.5    9.326    9.930    9.326    9.930
 gaVxcgb_GC                         462  9.6    0.289    9.234    0.289    9.234
 transfer_rs2pw_30                  413 10.4    3.908    4.132    9.053    9.161
 mp_waitall_1                    582886 13.5    6.394    9.120    6.394    9.120
 qs_scf_new_mos                     271  5.0    0.001    0.001    7.063    7.094
 qs_scf_loop_do_ot                  271  6.0    0.001    0.002    7.061    7.092
 transfer_pw2rs_30                  231 12.0    3.946    4.608    6.591    7.065
 rs_grid_zero                      1698 11.2    6.523    7.061    6.523    7.061
 calculate_xc_2nd_deriv_atom        140  9.0    0.056    1.145    0.257    7.060
 dbcsr_multiply_generic            4434  9.9    0.180    0.197    6.959    7.039
 fft_wrap_pw1pw2_90                 644 10.9    0.223    0.338    5.655    6.929
 pw_copy                           4990 10.7    6.362    6.739    6.362    6.739
 transfer_rs2pw_90                  413 10.4    1.676    1.888    6.396    6.682
 ot_scf_mini                        271  7.0    0.003    0.004    6.610    6.643
 mp_sendrecv_dv                   78470 11.4    6.285    6.507    6.285    6.507
 pw_poisson_set                     412  9.7    0.014    0.019    6.351    6.441
 xc_functional_eval                1916 10.9    0.003    0.007    1.513    5.597
 pbe_lda_eval                      1916 11.9    1.510    5.590    1.510    5.590
 calculate_vxc_atom                 271  8.0    0.150    1.192    5.108    5.108
 transfer_pw2rs_90                  231 12.0    0.960    1.169    3.986    4.590
 mp_sum_dm                         7454  8.8    3.849    4.426    3.849    4.426
 pw_copy_to_array                  3400 12.3    3.418    4.420    3.418    4.420
 pw_integral_ab_c1d_c1d_gs          411  9.7    3.007    3.033    3.532    3.972
 multiply_cannon                   4434 10.9    0.400    0.410    3.557    3.718
 cp_dbcsr_sm_fm_multiply            889  8.5    0.017    0.018    3.516    3.604
 pw_axpy                           3358  9.9    3.128    3.405    3.128    3.405
 qs_ot_get_p                        272  8.0    0.002    0.002    3.195    3.200
 Vh_1c_gg_integrals                 411  8.7    0.109    2.402    2.960    3.186
 pw_copy_from_array                3215 12.8    2.270    2.844    2.270    2.844
 multiply_cannon_loop              4434 11.9    0.664    0.700    2.610    2.776
 mp_isendrecv_dv                 148580 11.9    1.365    2.671    1.365    2.671
 pw_zero                           3272 10.5    2.320    2.560    2.320    2.560
 mp_sum_l                         20091 10.7    2.110    2.548    2.110    2.548
 mp_irecv_dm3                     12678 12.0    1.125    2.525    1.125    2.525
 dbcsr_complete_redistribute       3351 10.8    0.126    0.175    2.379    2.465
 qs_ot_p2m_diag                     270  9.0    0.006    0.010    2.354    2.368
 mp_isend_dm3                     12678 12.0    1.139    2.280    1.139    2.280
 mp_isend_dv                     249245 13.5    1.582    2.272    1.582    2.272
 integrate_four_center_getP         551 10.5    0.094    0.106    1.895    2.124
 make_m2s                          8868 10.9    0.148    0.158    1.990    2.082
 ot_mini                            271  8.0    0.001    0.001    2.062    2.078
 create_qs_kind_set                   1  2.0    0.000    0.000    2.045    2.046
 read_qs_kind                         3  3.0    1.098    1.167    2.045    2.045
 update_ks_atom                     411  8.3    0.087    0.175    1.501    1.898
 mp_max_i                           879  5.9    1.521    1.893    1.521    1.893
 transfer_rs2pw_10                  413 10.4    0.724    0.783    1.863    1.893
 qs_ot_get_derivative                91  9.0    0.001    0.001    1.889    1.891
 integrate_four_center_load         551 10.5    0.001    0.002    1.429    1.843
 hfx_load_balance                     1 11.0    0.000    0.000    1.428    1.842
 calculate_rho_atom_coeff           413  7.4    0.151    0.304    1.815    1.834
 hfx_load_balance_range               1 12.0    0.000    0.000    1.419    1.833
 mp_bcast_dm                       5206  9.5    1.420    1.778    1.420    1.778
 copy_dbcsr_to_fm                  1201  9.8    0.015    0.017    1.748    1.767
 copy_fm_to_dbcsr                  2148  9.8    0.009    0.010    1.442    1.529
 cp_dbcsr_syevd                     270 10.0    0.015    0.016    1.488    1.494
 make_images                       8868 11.9    0.348    0.358    1.446    1.491
 qs_ot_get_derivative_diag           89 10.0    0.002    0.002    1.431    1.434
 integrate_four_center_dist_KS      551 10.5    0.094    0.105    1.417    1.423
 cp_fm_syevd                        319 10.5    0.002    0.002    1.360    1.362
 fft_wrap_pw1pw2_30                 644 10.9    0.041    0.049    1.195    1.344
 rs_gather_matrices                 231 10.0    0.003    0.013    1.111    1.313
 transfer_pw2rs_10                  231 12.0    0.425    0.471    1.139    1.309
 cp_dbcsr_sm_fm_multiply_core       889  9.5    0.002    0.002    1.249    1.286
 grid_integrate_task_list           231 10.0    0.161    1.189    0.161    1.189
 scale_and_distribute               822 10.7    1.028    1.179    1.028    1.179
 cp_fm_redistribute_end             319 11.5    0.623    1.097    0.631    1.105
 offload_free_buffer                419  9.6    0.624    1.046    0.624    1.046
 parser_read_line                232775  4.0    0.082    0.087    0.947    0.959
 mp_alltoall_i11v                 11528 11.8    0.950    0.951    0.950    0.951
 cp_fm_syevd_base                   319 11.5    0.468    0.941    0.468    0.941
 qs_ot_get_orbitals                 271  8.0    0.001    0.001    0.875    0.882
 parser_read_line_low               252  5.0    0.077    0.384    0.865    0.880
 powell_optimize                 313865 11.0    0.786    0.820    0.786    0.820
 broadcast_input_information        252  6.0    0.187    0.200    0.788    0.807
 calculate_rho0_atom               1236  9.3    0.770    0.792    0.770    0.792
 tddfpt_orthonormalize_psi1_psi       8  6.9    0.014    0.016    0.789    0.789
 pw_poisson_rebuild                 411  9.7    0.000    0.001    0.775    0.788
 ps_wavelet_create                    1 10.0    0.000    0.000    0.775    0.788
 RS_z_slice_distribution              1 11.0    0.679    0.730    0.775    0.788
 tddfpt_print_nto_analysis            1  6.0    0.002    0.003    0.771    0.771
 calc_pair_dist_radii                 1 10.0    0.371    0.381    0.732    0.750
 dbcsr_desymmetrize_deep           1202 10.8    0.022    0.025    0.669    0.691
 cp_dbcsr_plus_fm_fm_t              141  9.0    0.002    0.002    0.624    0.631
 multiply_cannon_metrocomm4       97548 12.9    0.288    0.305    0.563    0.624
 prepare_dr1dr                      700 11.1    0.498    0.585    0.498    0.585
 multiply_cannon_metrocomm3      106416 12.9    0.168    0.175    0.436    0.576
 make_images_sizes                 8868 12.9    0.009    0.010    0.544    0.573
 tddfpt_apply_energy_diff             7  8.0    0.001    0.001    0.566    0.566
 mp_alltoall_i44                   8868 13.9    0.535    0.564    0.535    0.564
 multiply_cannon_metrocomm2       93114 12.9    0.276    0.298    0.508    0.561
 mp_alltoall_i22                   4644 11.8    0.394    0.490    0.394    0.490
 tddfpt_compute_residual_vects        6  7.0    0.001    0.001    0.489    0.489
 fft_wrap_pw1pw2_10                 644 10.9    0.010    0.011    0.452    0.481
 cp_fm_geeig                         20  7.0    0.001    0.001    0.476    0.476
 calculate_dm_sparse                272  7.0    0.001    0.001    0.453    0.460
 parallel_gemm_fm                  1186  8.4    0.001    0.002    0.434    0.447
 parallel_gemm_fm_gemm             1186  9.4    0.002    0.002    0.432    0.446
 cp_fm_gemm                        1186 10.4    0.431    0.444    0.431    0.444
 mp_rank_compare                   6615 13.5    0.397    0.426    0.397    0.426
 hybrid_alltoall_any              10070 13.6    0.078    0.092    0.384    0.418
 dbcsr_make_images_dense           6356 11.9    0.096    0.101    0.287    0.404
 mp_bcast_i_src                    1008  7.0    0.334    0.401    0.334    0.401
 arnoldi_extremal                   272  9.0    0.005    0.005    0.390    0.396
 arnoldi_normal_ev                  273 10.0    0.005    0.005    0.387    0.393
 tddfpt_construct_ground_state_       1  6.0    0.000    0.000    0.390    0.391
 multiply_cannon_metrocomm1      106416 12.9    0.117    0.121    0.283    0.384
 dbcsr_create_new                 94358 12.3    0.263    0.275    0.354    0.372
 qs_energies_init_hamiltonians        1  3.0    0.000    0.000    0.363    0.363
 dbcsr_finalize                   11865 11.3    0.052    0.082    0.251    0.358
 build_core_hamiltonian_matrix        1  4.0    0.000    0.000    0.356    0.356
 overlap_condnum                      1  5.0    0.000    0.000    0.353    0.354
 init_scf_run                         1  3.0    0.000    0.000    0.344    0.344
 scf_env_initial_rho_setup            1  4.0    0.000    0.000    0.344    0.344
 mp_bcast_am_src                    252  7.0    0.235    0.307    0.262    0.326
 arnoldi_conjugate_gradient           5  6.0    0.008    0.010    0.315    0.315
 mp_allgather_i34                  4434 11.9    0.280    0.314    0.280    0.314
 dbcsr_make_dense_low             18514 12.8    0.092    0.095    0.141    0.295
 build_subspace                     273 11.0    0.014    0.015    0.293    0.295
 pw_scale                           644  9.5    0.246    0.293    0.246    0.293
 vxc_of_r_new                      1084  9.0    0.001    0.023    0.009    0.287
 make_images_data                  8868 12.9    0.086    0.114    0.193    0.286
 mp_alltoall_z11v                   644 13.9    0.256    0.284    0.256    0.284
 qs_init_subsys                       1  2.0    0.005    0.005    0.277    0.278
 cp_fm_redistribute_start           319 11.5    0.207    0.212    0.260    0.267
 qs_env_setup                         1  3.0    0.000    0.000    0.255    0.258
 qs_env_rebuild_pw_env                2  3.5    0.000    0.000    0.254    0.257
 pw_env_rebuild                       1  5.0    0.001    0.001    0.254    0.257
 multiply_cannon_multrec         106416 12.9    0.136    0.230    0.155    0.248
 xc_2nd_deriv_of_r                  560 10.0    0.001    0.042    0.008    0.248
 pw_grid_setup                        4  6.0    0.000    0.000    0.233    0.236
 pw_grid_setup_internal               4  7.0    0.006    0.008    0.233    0.235
 dbcsr_matrix_vector_mult          3147 12.0    0.028    0.029    0.150    0.232
 dbcsr_special_finalize           22170 12.9    0.056    0.058    0.179    0.222
 create_kernel_env                    1  6.0    0.000    0.000    0.198    0.220
 xc_prep_2nd_deriv                    1  7.0    0.000    0.000    0.198    0.220
 dbcsr_sym_matrix_vector_mult      1378  7.5    0.022    0.024    0.182    0.219
 rs_grid_create                     417  9.6    0.002    0.003    0.029    0.215
 offload_create_buffer              419 10.6    0.027    0.213    0.027    0.213
 mp_irecv_dv                     245342 13.5    0.184    0.210    0.184    0.210
 cp_fm_trace_a1b1t1_aa            10080  8.0    0.047    0.051    0.200    0.201
 dbcsr_merge_all                  10531 12.3    0.111    0.148    0.143    0.199
 mp_cart_sub                       2405 11.8    0.196    0.198    0.196    0.198
 dbcsr_iterator_start             86921 12.1    0.090    0.159    0.110    0.194
 mp_cart_create                    2439 10.5    0.165    0.177    0.168    0.181
 mp_isend_iv                     209288 13.9    0.159    0.174    0.159    0.174
 xz_to_yz                           413 12.4    0.015    0.017    0.160    0.170
 ot_new_cg_direction                 91  9.0    0.001    0.001    0.161    0.162
 dbcsr_add_d                       2567  8.1    0.003    0.004    0.025    0.160
 pw_grid_sort                         4  8.0    0.107    0.109    0.156    0.158
 dbcsr_col_vec_to_rep_row          4525 11.6    0.031    0.035    0.096    0.158
 dbcsr_add_anytype                 2567  9.1    0.004    0.021    0.022    0.156
 dbcsr_destroy                    90214 11.4    0.110    0.113    0.148    0.153
 make_dense_data                  18514 13.8    0.008    0.065    0.010    0.152
 apply_preconditioner_dbcsr          92 10.0    0.000    0.000    0.142    0.147
 apply_single                        92 11.0    0.000    0.000    0.141    0.147
 yz_to_xz                           231 14.0    0.013    0.014    0.124    0.144
 dbcsr_data_new                  253500 13.0    0.106    0.141    0.106    0.141
 rs_scatter_matrices                413  8.4    0.004    0.008    0.130    0.134
 dbcsr_data_release              434875 13.1    0.109    0.127    0.109    0.127
 dbcsr_iterator_stop              86921 12.1    0.066    0.105    0.081    0.125
 dbcsr_work_create                33994 12.5    0.059    0.068    0.086    0.106
 mp_irecv_iv                     209287 13.9    0.092    0.105    0.092    0.105
 setup_buffer_matrices             8868 11.9    0.033    0.033    0.101    0.103
 dbcsr_make_dense                  2624 11.1    0.011    0.012    0.056    0.101
 mp_bcast_dv                       4844 12.6    0.032    0.095    0.032    0.095
 dbcsr_new_transposed              1996 10.8    0.011    0.012    0.088    0.092
 Gram_Schmidt_ortho                2981 11.9    0.003    0.005    0.073    0.091
 mp_sum_b                          6357 10.9    0.086    0.090    0.086    0.090
 dbcsr_work_destroy_all           33994 13.4    0.055    0.064    0.073    0.088
 dbcsr_copy                       11289  9.2    0.038    0.042    0.078    0.087
 tddfpt_orthogonalize_psi1_psi0       8  6.9    0.000    0.000    0.074    0.085
 cp_fm_cholesky_decompose            23  7.9    0.083    0.083    0.083    0.083
 dbcsr_merge_single_wm             9050 13.6    0.044    0.053    0.051    0.080
 scf_post_calculation_gpw             1  3.0    0.000    0.000    0.079    0.079
 write_available_results              1  4.0    0.000    0.000    0.079    0.079
 write_mo_free_results                1  5.0    0.007    0.009    0.079    0.079
 mp_bcast_iv                        274  7.5    0.028    0.079    0.028    0.079
 dbcsr_make_undense                2624 11.1    0.017    0.033    0.033    0.074
 copy_fm_to_dbcsr_bc               2148 10.8    0.023    0.026    0.070    0.074
 tddfpt_compute_ritz_vects            7  7.0    0.005    0.005    0.072    0.072
 dbcsr_dot                          907  8.7    0.005    0.010    0.059    0.072
 cp_fm_triangular_invert             20  8.0    0.070    0.070    0.070    0.070
 dbcsr_rep_row_to_rep_col_vec      1378  8.5    0.007    0.009    0.030    0.069
 xc_pw_smooth                        91 10.0    0.000    0.000    0.048    0.069
 dbcsr_mm_multrec_init             4434 11.9    0.008    0.010    0.061    0.067
 quick_finalize                   14413 14.0    0.030    0.037    0.050    0.065
 -------------------------------------------------------------------------------

 The number of warnings for this run is : 2
 
 -------------------------------------------------------------------------------
  **** **** ******  **  PROGRAM ENDED AT                 2025-04-28 04:49:37.624
 ***** ** ***  *** **   PROGRAM RAN ON                              i03r02c01s04
 **    ****   ******    PROGRAM RAN BY                                   di38fab
 ***** **    ** ** **   PROGRAM PROCESS ID                               1468814
  **** **  *******  **  PROGRAM STOPPED IN /hppfs/scratch/04/di38fab/07_MOL_non_
                                           aug/05_MOL_non_aug/05_MOL/W4-11+ALK/c
                                           2h3f/TZVPP/TDDFT
