 DBCSR| CPU Multiplication driver                                           BLAS (U)
 DBCSR| Multrec recursion limit                                              512 (U)
 DBCSR| Multiplication stack size                                           1000 (D)
 DBCSR| Maximum elements for images                                    UNLIMITED (U)
 DBCSR| Multiplicative factor virtual images                                   1 (U)
 DBCSR| Use multiplication densification                                       T (D)
 DBCSR| Multiplication size stacks                                             3 (U)
 DBCSR| Use memory pool for CPU allocation                                     F (U)
 DBCSR| Number of 3D layers                                               SINGLE (U)
 DBCSR| Use MPI memory allocation                                              F (U)
 DBCSR| Use RMA algorithm                                                      F (U)
 DBCSR| Use Communication thread                                               T (U)
 DBCSR| Communication thread load                                             75 (D)
 DBCSR| MPI: My process id                                                     0
 DBCSR| MPI: Number of processes                                             192
 DBCSR| OMP: Current number of threads                                         4
 DBCSR| OMP: Max number of threads                                             4
 DBCSR| Split modifier for TAS multiplication algorithm                  1.0E+00 (U)


  **** **** ******  **  PROGRAM STARTED AT               2025-04-20 16:10:18.401
 ***** ** ***  *** **   PROGRAM STARTED ON                          i02r03c03s01
 **    ****   ******    PROGRAM STARTED BY                               di38fab
 ***** **    ** ** **   PROGRAM PROCESS ID                               4086234
  **** **  *******  **  PROGRAM STARTED IN /hppfs/scratch/04/di38fab/05_MOL/W4-1
                                           1+ALK/hcno/DZVP/TDDFT/1e-4

 CP2K| version string:                 CP2K version 2025.1 (Development Version)
 CP2K| source code revision number:                             unknown revision
 CP2K| cp2kflags: omp libint fftw3 libxc parallel scalapack max_contr=4         
 CP2K| is freely available from                            https://www.cp2k.org/
 CP2K| Program compiled at                         Thu Apr 10 16:20:23 CEST 2025
 CP2K| Program compiled on                                               login01
 CP2K| Program compiled for                                        Supermuc-foss
 CP2K| Data directory path                  /hppfs/work/pn36zo/di38fab/cp2k/data
 CP2K| Input file name                                                    GW.inp

 GLOBAL| Force Environment number                                              1
 GLOBAL| Basis set file name            /hppfs/scratch/04/di38fab/04_TMD/BASIS_A
 GLOBAL| Potential file name            /hppfs/work/pn36zo/di38fab/cp2k/data/ALL
 GLOBAL| MM Potential file name                                     MM_POTENTIAL
 GLOBAL| Coordinate file name                                      __STD_INPUT__
 GLOBAL| Method name                                                        CP2K
 GLOBAL| Project name                                                       MoS2
 GLOBAL| Run type                                                         ENERGY
 GLOBAL| FFT library                                                       FFTW3
 GLOBAL| Diagonalization library                                       ScaLAPACK
 GLOBAL| DGEMM library                                                      BLAS
 GLOBAL| Orthonormality check for eigenvectors                          DISABLED
 GLOBAL| Matrix multiplication library                                 ScaLAPACK
 GLOBAL| All-to-all communication in single precision                          F
 GLOBAL| FFTs using library dependent lengths                                  F
 GLOBAL| Grid backend                                                       AUTO
 GLOBAL| Global print level                                               MEDIUM
 GLOBAL| MPI I/O enabled                                                       T
 GLOBAL| Total number of message passing processes                           192
 GLOBAL| Number of threads for this process                                    4
 GLOBAL| This output is from process                                           0
 GLOBAL| OpenMP stack size per thread (OMP_STACKSIZE)                    default
 GLOBAL| CPU model name             Intel(R) Xeon(R) Platinum 8174 CPU @ 3.10GHz

 MEMORY| system memory details [Kb]
 MEMORY|                        rank 0           min           max       average
 MEMORY| MemTotal             98436648      98436648      98436708      98436667
 MEMORY| MemFree              83911356      83470224      84982740      83847176
 MEMORY| Buffers                     0             0             0             0
 MEMORY| Cached                2428212       2362980       2445288       2427732
 MEMORY| Slab                  1225468       1045336       1268832       1237265
 MEMORY| SReclaimable           270376        238584        282972        273226
 MEMORY| MemLikelyFree        86609944      86170768      87584304      86548134


 *** Fundamental physical constants (SI units) ***

 *** Literature: B. J. Mohr and B. N. Taylor,
 ***             CODATA recommended values of the fundamental physical
 ***             constants: 2006, Web Version 5.1
 ***             http://physics.nist.gov/constants

 Speed of light in vacuum [m/s]                             2.99792458000000E+08
 Magnetic constant or permeability of vacuum [N/A**2]       1.25663706143592E-06
 Electric constant or permittivity of vacuum [F/m]          8.85418781762039E-12
 Planck constant (h) [J*s]                                  6.62606896000000E-34
 Planck constant (h-bar) [J*s]                              1.05457162825177E-34
 Elementary charge [C]                                      1.60217648700000E-19
 Electron mass [kg]                                         9.10938215000000E-31
 Electron g factor [ ]                                     -2.00231930436220E+00
 Proton mass [kg]                                           1.67262163700000E-27
 Fine-structure constant                                    7.29735253760000E-03
 Rydberg constant [1/m]                                     1.09737315685270E+07
 Avogadro constant [1/mol]                                  6.02214179000000E+23
 Boltzmann constant [J/K]                                   1.38065040000000E-23
 Atomic mass unit [kg]                                      1.66053878200000E-27
 Bohr radius [m]                                            5.29177208590000E-11

 *** Conversion factors ***

 [u] -> [a.u.]                                              1.82288848426455E+03
 [Angstrom] -> [Bohr] = [a.u.]                              1.88972613288564E+00
 [a.u.] = [Bohr] -> [Angstrom]                              5.29177208590000E-01
 [a.u.] -> [s]                                              2.41888432650478E-17
 [a.u.] -> [fs]                                             2.41888432650478E-02
 [a.u.] -> [J]                                              4.35974393937059E-18
 [a.u.] -> [N]                                              8.23872205491840E-08
 [a.u.] -> [K]                                              3.15774647902944E+05
 [a.u.] -> [kJ/mol]                                         2.62549961709828E+03
 [a.u.] -> [kcal/mol]                                       6.27509468713739E+02
 [a.u.] -> [Pa]                                             2.94210107994716E+13
 [a.u.] -> [bar]                                            2.94210107994716E+08
 [a.u.] -> [atm]                                            2.90362800883016E+08
 [a.u.] -> [eV]                                             2.72113838565563E+01
 [a.u.] -> [Hz]                                             6.57968392072181E+15
 [a.u.] -> [1/cm] (wave numbers)                            2.19474631370540E+05
 [a.u./Bohr**2] -> [1/cm]                                   5.14048714338585E+03
 

 CELL_TOP| Volume [angstrom^3]:                                     27000.000000
 CELL_TOP| Vector a [angstrom    30.000     0.000     0.000   |a| =    30.000000
 CELL_TOP| Vector b [angstrom     0.000    30.000     0.000   |b| =    30.000000
 CELL_TOP| Vector c [angstrom     0.000     0.000    30.000   |c| =    30.000000
 CELL_TOP| Angle (b,c), alpha [degree]:                                90.000000
 CELL_TOP| Angle (a,c), beta  [degree]:                                90.000000
 CELL_TOP| Angle (a,b), gamma [degree]:                                90.000000
 CELL_TOP| Numerically orthorhombic:                                         YES
 CELL_TOP| Periodicity                                                      NONE

 GENERATE|  Preliminary Number of Bonds generated:                             0
 GENERATE|  Achieved consistency in connectivity generation.

 CELL| Volume [angstrom^3]:                                         27000.000000
 CELL| Vector a [angstrom]:      30.000     0.000     0.000   |a| =    30.000000
 CELL| Vector b [angstrom]:       0.000    30.000     0.000   |b| =    30.000000
 CELL| Vector c [angstrom]:       0.000     0.000    30.000   |c| =    30.000000
 CELL| Angle (b,c), alpha [degree]:                                    90.000000
 CELL| Angle (a,c), beta  [degree]:                                    90.000000
 CELL| Angle (a,b), gamma [degree]:                                    90.000000
 CELL| Numerically orthorhombic:                                             YES
 CELL| Periodicity                                                          NONE

 CELL_REF| Volume [angstrom^3]:                                     27000.000000
 CELL_REF| Vector a [angstrom    30.000     0.000     0.000   |a| =    30.000000
 CELL_REF| Vector b [angstrom     0.000    30.000     0.000   |b| =    30.000000
 CELL_REF| Vector c [angstrom     0.000     0.000    30.000   |c| =    30.000000
 CELL_REF| Angle (b,c), alpha [degree]:                                90.000000
 CELL_REF| Angle (a,c), beta  [degree]:                                90.000000
 CELL_REF| Angle (a,b), gamma [degree]:                                90.000000
 CELL_REF| Numerically orthorhombic:                                         YES
 CELL_REF| Periodicity                                                      NONE

 *******************************************************************************
 *******************************************************************************
 **                                                                           **
 **     #####                         ##              ##                      **
 **    ##   ##            ##          ##              ##                      **
 **   ##     ##                       ##            ######                    **
 **   ##     ##  ##   ##  ##   #####  ##  ##   ####   ##    #####    #####    **
 **   ##     ##  ##   ##  ##  ##      ## ##   ##      ##   ##   ##  ##   ##   **
 **   ##  ## ##  ##   ##  ##  ##      ####     ###    ##   ######   ######    **
 **    ##  ###   ##   ##  ##  ##      ## ##      ##   ##   ##       ##        **
 **     #######   #####   ##   #####  ##  ##  ####    ##    #####   ##        **
 **           ##                                                    ##        **
 **                                                                           **
 **                                                ... make the atoms dance   **
 **                                                                           **
 **            Copyright (C) by CP2K developers group (2000-2025)             **
 **                      J. Chem. Phys. 152, 194103 (2020)                    **
 **                                                                           **
 *******************************************************************************

 DFT| Spin restricted Kohn-Sham (RKS) calculation                            RKS
 DFT| Multiplicity                                                             1
 DFT| Number of spin states                                                    1
 DFT| Charge                                                                   0
 DFT| Self-interaction correction (SIC)                                       NO
 DFT| Cutoffs: density                                              1.000000E-10
 DFT|          gradient                                             1.000000E-10
 DFT|          tau                                                  1.000000E-10
 DFT|          cutoff_smoothing_range                               0.000000E+00
 DFT| XC density smoothing                                                  NONE
 DFT| XC derivatives                                                          PW

 FUNCTIONAL| PBE:
 FUNCTIONAL| J.P.Perdew, K.Burke, M.Ernzerhof, Phys. Rev. Letter, vol. 77, n 18,
 FUNCTIONAL|  pp. 3865-3868, (1996)sx=0.750sc=1.000{spin unpolarized}           


 QS| Method:                                                                GAPW
 QS| Density plane wave grid type                        NON-SPHERICAL FULLSPACE
 QS| Number of grid levels:                                                    4
 QS| Density cutoff [a.u.]:                                                250.0
 QS| Multi grid cutoff [a.u.]: 1) grid level                               250.0
 QS|                           2) grid level                                83.3
 QS|                           3) grid level                                27.8
 QS|                           4) grid level                                 9.3
 QS| Grid level progression factor:                                          3.0
 QS| Relative density cutoff [a.u.]:                                        50.0
 QS| Interaction thresholds: eps_pgf_orb:                                1.0E-12
 QS|                         eps_filter_matrix:                          0.0E+00
 QS|                         eps_core_charge:                            1.0E-14
 QS|                         eps_rho_gspace:                             1.0E-12
 QS|                         eps_rho_rspace:                             1.0E-12
 QS|                         eps_gvg_rspace:                             1.0E-06
 QS|                         eps_ppl:                                    1.0E-02
 QS|                         eps_ppnl:                                   1.0E-08
 QS| GAPW|      One center basis from orbital basis primitives
 QS| GAPW|                   eps_fit:                                    1.0E-04
 QS| GAPW|                   eps_iso:                                    1.0E-12
 QS| GAPW|                   eps_svd:                                    1.0E-08
 QS| GAPW|                   eps_cpc:                                    1.0E-12
 QS| GAPW|   atom-r-grid: quadrature:                                     GC_LOG
 QS| GAPW|      atom-s-grid:  max l :                                          6
 QS| GAPW|      max_l_rho0 :                                                   2


 ATOMIC KIND INFORMATION

  1. Atomic kind: C                                     Number of atoms:       1

     Orbital Basis Set                                        aug-DZVP-MOLOPT-ae

       Number of orbital shell sets:                                           2
       Number of orbital shells:                                              10
       Number of primitive Cartesian functions:                               13
       Number of Cartesian basis functions:                                   35
       Number of spherical basis functions:                                   30
       Norm type:                                                              2

       Normalised Cartesian orbitals:

                        Set   Shell   Orbital            Exponent    Coefficient

                          1       1    2px               0.050000       0.000000
                                                         0.096935       0.005344
                                                         0.300899       0.144116
                                                         0.937529       0.673511
                                                         4.145546       1.425967
                          1       1    2py               0.050000       0.000000
                                                         0.096935       0.005344
                                                         0.300899       0.144116
                                                         0.937529       0.673511
                                                         4.145546       1.425967
                          1       1    2pz               0.050000       0.000000
                                                         0.096935       0.005344
                                                         0.300899       0.144116
                                                         0.937529       0.673511
                                                         4.145546       1.425967

                          1       2    3px               0.050000       0.000000
                                                         0.096935       0.066903
                                                         0.300899       0.082631
                                                         0.937529      -0.414500
                                                         4.145546      -0.833488
                          1       2    3py               0.050000       0.000000
                                                         0.096935       0.066903
                                                         0.300899       0.082631
                                                         0.937529      -0.414500
                                                         4.145546      -0.833488
                          1       2    3pz               0.050000       0.000000
                                                         0.096935       0.066903
                                                         0.300899       0.082631
                                                         0.937529      -0.414500
                                                         4.145546      -0.833488

                          1       3    4px               0.050000       0.052477
                                                         0.096935      -0.149600
                                                         0.300899      -0.031452
                                                         0.937529       0.106528
                                                         4.145546       0.000000
                          1       3    4py               0.050000       0.052477
                                                         0.096935      -0.149600
                                                         0.300899      -0.031452
                                                         0.937529       0.106528
                                                         4.145546       0.000000
                          1       3    4pz               0.050000       0.052477
                                                         0.096935      -0.149600
                                                         0.300899      -0.031452
                                                         0.937529       0.106528
                                                         4.145546       0.000000

                          1       4    3dx2              0.050000       0.000000
                                                         0.096935       0.001258
                                                         0.300899       0.105504
                                                         0.937529       0.830801
                                                         4.145546       0.718979
                          1       4    3dxy              0.050000       0.000000
                                                         0.096935       0.002179
                                                         0.300899       0.182739
                                                         0.937529       1.438990
                                                         4.145546       1.245309
                          1       4    3dxz              0.050000       0.000000
                                                         0.096935       0.002179
                                                         0.300899       0.182739
                                                         0.937529       1.438990
                                                         4.145546       1.245309
                          1       4    3dy2              0.050000       0.000000
                                                         0.096935       0.001258
                                                         0.300899       0.105504
                                                         0.937529       0.830801
                                                         4.145546       0.718979
                          1       4    3dyz              0.050000       0.000000
                                                         0.096935       0.002179
                                                         0.300899       0.182739
                                                         0.937529       1.438990
                                                         4.145546       1.245309
                          1       4    3dz2              0.050000       0.000000
                                                         0.096935       0.001258
                                                         0.300899       0.105504
                                                         0.937529       0.830801
                                                         4.145546       0.718979

                          1       5    4dx2              0.050000      -0.011665
                                                         0.096935       0.057456
                                                         0.300899      -0.258169
                                                         0.937529       0.000000
                                                         4.145546       0.000000
                          1       5    4dxy              0.050000      -0.020204
                                                         0.096935       0.099516
                                                         0.300899      -0.447162
                                                         0.937529       0.000000
                                                         4.145546       0.000000
                          1       5    4dxz              0.050000      -0.020204
                                                         0.096935       0.099516
                                                         0.300899      -0.447162
                                                         0.937529       0.000000
                                                         4.145546       0.000000
                          1       5    4dy2              0.050000      -0.011665
                                                         0.096935       0.057456
                                                         0.300899      -0.258169
                                                         0.937529       0.000000
                                                         4.145546       0.000000
                          1       5    4dyz              0.050000      -0.020204
                                                         0.096935       0.099516
                                                         0.300899      -0.447162
                                                         0.937529       0.000000
                                                         4.145546       0.000000
                          1       5    4dz2              0.050000      -0.011665
                                                         0.096935       0.057456
                                                         0.300899      -0.258169
                                                         0.937529       0.000000
                                                         4.145546       0.000000

                          1       6    4fx3              0.050000      -0.000180
                                                         0.096935       0.008160
                                                         0.300899       0.004002
                                                         0.937529       0.000000
                                                         4.145546       0.000000
                          1       6    4fx2y             0.050000      -0.000402
                                                         0.096935       0.018246
                                                         0.300899       0.008949
                                                         0.937529       0.000000
                                                         4.145546       0.000000
                          1       6    4fx2z             0.050000      -0.000402
                                                         0.096935       0.018246
                                                         0.300899       0.008949
                                                         0.937529       0.000000
                                                         4.145546       0.000000
                          1       6    4fxy2             0.050000      -0.000402
                                                         0.096935       0.018246
                                                         0.300899       0.008949
                                                         0.937529       0.000000
                                                         4.145546       0.000000
                          1       6    4fxyz             0.050000      -0.000696
                                                         0.096935       0.031603
                                                         0.300899       0.015500
                                                         0.937529       0.000000
                                                         4.145546       0.000000
                          1       6    4fxz2             0.050000      -0.000402
                                                         0.096935       0.018246
                                                         0.300899       0.008949
                                                         0.937529       0.000000
                                                         4.145546       0.000000
                          1       6    4fy3              0.050000      -0.000180
                                                         0.096935       0.008160
                                                         0.300899       0.004002
                                                         0.937529       0.000000
                                                         4.145546       0.000000
                          1       6    4fy2z             0.050000      -0.000402
                                                         0.096935       0.018246
                                                         0.300899       0.008949
                                                         0.937529       0.000000
                                                         4.145546       0.000000
                          1       6    4fyz2             0.050000      -0.000402
                                                         0.096935       0.018246
                                                         0.300899       0.008949
                                                         0.937529       0.000000
                                                         4.145546       0.000000
                          1       6    4fz3              0.050000      -0.000180
                                                         0.096935       0.008160
                                                         0.300899       0.004002
                                                         0.937529       0.000000
                                                         4.145546       0.000000

                          2       1    1s                0.060000       0.000000
                                                         0.161278       0.024253
                                                         0.523772      -0.029268
                                                         3.176528       0.666384
                                                        10.501907       2.110671
                                                        40.805234       2.242010
                                                       186.270922       1.801845
                                                      1238.394264      -0.490536

                          2       2    2s                0.060000       0.000000
                                                         0.161278       0.080328
                                                         0.523772       0.279468
                                                         3.176528      -0.079506
                                                        10.501907      -0.033488
                                                        40.805234       0.350132
                                                       186.270922      -0.108171
                                                      1238.394264       0.147138

                          2       3    3s                0.060000       0.000000
                                                         0.161278       0.225687
                                                         0.523772      -0.382710
                                                         3.176528      -0.308205
                                                        10.501907      -0.974990
                                                        40.805234      -2.174132
                                                       186.270922       1.755878
                                                      1238.394264     -12.484315

                          2       4    4s                0.060000      -0.055653
                                                         0.161278      -0.019607
                                                         0.523772       0.500289
                                                         3.176528       0.067234
                                                        10.501907       0.000000
                                                        40.805234       0.000000
                                                       186.270922       0.000000
                                                      1238.394264       0.000000

     RI Auxiliary Basis Set             RI_aug-DZVP-MOLOPT-ae_N_RI_060_s_p_d_f_g

       Number of orbital shell sets:                                          18
       Number of orbital shells:                                              18
       Number of primitive Cartesian functions:                               18
       Number of Cartesian basis functions:                                   75
       Number of spherical basis functions:                                   60
       Norm type:                                                              2

       Normalised Cartesian orbitals:

                        Set   Shell   Orbital            Exponent    Coefficient

                          1       1    1s                0.139029       0.162270

                          2       1   13dx2              0.260720       0.156572
                          2       1   13dxy              0.260720       0.271190
                          2       1   13dxz              0.260720       0.271190
                          2       1   13dy2              0.260720       0.156572
                          2       1   13dyz              0.260720       0.271190
                          2       1   13dz2              0.260720       0.156572

                          3       1    8px               0.263737       0.269404
                          3       1    8py               0.263737       0.269404
                          3       1    8pz               0.263737       0.269404

                          4       1   16fx3              0.295019       0.094432
                          4       1   16fx2y             0.295019       0.211156
                          4       1   16fx2z             0.295019       0.211156
                          4       1   16fxy2             0.295019       0.211156
                          4       1   16fxyz             0.295019       0.365732
                          4       1   16fxz2             0.295019       0.211156
                          4       1   16fy3              0.295019       0.094432
                          4       1   16fy2z             0.295019       0.211156
                          4       1   16fyz2             0.295019       0.211156
                          4       1   16fz3              0.295019       0.094432

                          5       1    2s                0.350935       0.324960

                          6       1    9px               0.711576       0.931572
                          6       1    9py               0.711576       0.931572
                          6       1    9pz               0.711576       0.931572

                          7       1   14dx2              0.722037       0.930870
                          7       1   14dxy              0.722037       1.612314
                          7       1   14dxz              0.722037       1.612314
                          7       1   14dy2              0.722037       0.930870
                          7       1   14dyz              0.722037       1.612314
                          7       1   14dz2              0.722037       0.930870

                          8       1   18gx4              0.735195       0.477576
                          8       1   18gx3y             0.735195       1.263547
                          8       1   18gx3z             0.735195       1.263547
                          8       1   18gx2y2            0.735195       1.631232
                          8       1   18gx2yz            0.735195       2.825377
                          8       1   18gx2z2            0.735195       1.631232
                          8       1   18gxy3             0.735195       1.263547
                          8       1   18gxy2z            0.735195       2.825377
                          8       1   18gxyz2            0.735195       2.825377
                          8       1   18gxz3             0.735195       1.263547
                          8       1   18gy4              0.735195       0.477576
                          8       1   18gy3z             0.735195       1.263547
                          8       1   18gy2z2            0.735195       1.631232
                          8       1   18gyz3             0.735195       1.263547
                          8       1   18gz4              0.735195       0.477576

                          9       1    3s                1.027105       0.727145

                         10       1   17fx3              1.228639       2.339694
                         10       1   17fx2y             1.228639       5.231715
                         10       1   17fx2z             1.228639       5.231715
                         10       1   17fxy2             1.228639       5.231715
                         10       1   17fxyz             1.228639       9.061596
                         10       1   17fxz2             1.228639       5.231715
                         10       1   17fy3              1.228639       2.339694
                         10       1   17fy2z             1.228639       5.231715
                         10       1   17fyz2             1.228639       5.231715
                         10       1   17fz3              1.228639       2.339694

                         11       1   10px               1.813548       2.999863
                         11       1   10py               1.813548       2.999863
                         11       1   10pz               1.813548       2.999863

                         12       1   15dx2              2.060642       5.833296
                         12       1   15dxy              2.060642      10.103564
                         12       1   15dxz              2.060642      10.103564
                         12       1   15dy2              2.060642       5.833296
                         12       1   15dyz              2.060642      10.103564
                         12       1   15dz2              2.060642       5.833296

                         13       1    4s                3.115108       1.671148

                         14       1   11px               5.572228      12.203269
                         14       1   11py               5.572228      12.203269
                         14       1   11pz               5.572228      12.203269

                         15       1    5s                9.292692       3.793292

                         16       1   12px              16.974300      49.111129
                         16       1   12py              16.974300      49.111129
                         16       1   12pz              16.974300      49.111129

                         17       1    6s               27.662549       8.596650

                         18       1    7s               82.345042      19.482208

       Atomic covalent radius [Angstrom]:                                  0.770

       Atomic van der Waals radius [Angstrom]:                             1.700

     The atoms of this atomic kind are PAW atoms (GAPW):
       Hard Gaussian function radius:                                      1.512
       Rho0 radius:                                                        1.512
       Maximum GTO radius used for PAW projector construction:            24.566

     GAPW Soft Basis Set                                 aug-DZVP-MOLOPT-ae_soft

       Number of orbital shell sets:                                           2
       Number of orbital shells:                                              10
       Number of primitive Cartesian functions:                                9
       Number of Cartesian basis functions:                                   35
       Number of spherical basis functions:                                   30
       Norm type:                                                              2

       Normalised Cartesian orbitals:

                        Set   Shell   Orbital            Exponent    Coefficient

                          1       1    2px               0.050000       0.000000
                                                         0.096935       0.005344
                                                         0.300899       0.144116
                                                         0.937529       0.673511
                                                         4.145546       1.425967
                          1       1    2py               0.050000       0.000000
                                                         0.096935       0.005344
                                                         0.300899       0.144116
                                                         0.937529       0.673511
                                                         4.145546       1.425967
                          1       1    2pz               0.050000       0.000000
                                                         0.096935       0.005344
                                                         0.300899       0.144116
                                                         0.937529       0.673511
                                                         4.145546       1.425967

                          1       2    3px               0.050000       0.000000
                                                         0.096935       0.066903
                                                         0.300899       0.082631
                                                         0.937529      -0.414500
                                                         4.145546      -0.833488
                          1       2    3py               0.050000       0.000000
                                                         0.096935       0.066903
                                                         0.300899       0.082631
                                                         0.937529      -0.414500
                                                         4.145546      -0.833488
                          1       2    3pz               0.050000       0.000000
                                                         0.096935       0.066903
                                                         0.300899       0.082631
                                                         0.937529      -0.414500
                                                         4.145546      -0.833488

                          1       3    4px               0.050000       0.052477
                                                         0.096935      -0.149600
                                                         0.300899      -0.031452
                                                         0.937529       0.106528
                                                         4.145546       0.000000
                          1       3    4py               0.050000       0.052477
                                                         0.096935      -0.149600
                                                         0.300899      -0.031452
                                                         0.937529       0.106528
                                                         4.145546       0.000000
                          1       3    4pz               0.050000       0.052477
                                                         0.096935      -0.149600
                                                         0.300899      -0.031452
                                                         0.937529       0.106528
                                                         4.145546       0.000000

                          1       4    3dx2              0.050000       0.000000
                                                         0.096935       0.001258
                                                         0.300899       0.105504
                                                         0.937529       0.830801
                                                         4.145546       0.718979
                          1       4    3dxy              0.050000       0.000000
                                                         0.096935       0.002179
                                                         0.300899       0.182739
                                                         0.937529       1.438990
                                                         4.145546       1.245309
                          1       4    3dxz              0.050000       0.000000
                                                         0.096935       0.002179
                                                         0.300899       0.182739
                                                         0.937529       1.438990
                                                         4.145546       1.245309
                          1       4    3dy2              0.050000       0.000000
                                                         0.096935       0.001258
                                                         0.300899       0.105504
                                                         0.937529       0.830801
                                                         4.145546       0.718979
                          1       4    3dyz              0.050000       0.000000
                                                         0.096935       0.002179
                                                         0.300899       0.182739
                                                         0.937529       1.438990
                                                         4.145546       1.245309
                          1       4    3dz2              0.050000       0.000000
                                                         0.096935       0.001258
                                                         0.300899       0.105504
                                                         0.937529       0.830801
                                                         4.145546       0.718979

                          1       5    4dx2              0.050000      -0.011665
                                                         0.096935       0.057456
                                                         0.300899      -0.258169
                                                         0.937529       0.000000
                                                         4.145546       0.000000
                          1       5    4dxy              0.050000      -0.020204
                                                         0.096935       0.099516
                                                         0.300899      -0.447162
                                                         0.937529       0.000000
                                                         4.145546       0.000000
                          1       5    4dxz              0.050000      -0.020204
                                                         0.096935       0.099516
                                                         0.300899      -0.447162
                                                         0.937529       0.000000
                                                         4.145546       0.000000
                          1       5    4dy2              0.050000      -0.011665
                                                         0.096935       0.057456
                                                         0.300899      -0.258169
                                                         0.937529       0.000000
                                                         4.145546       0.000000
                          1       5    4dyz              0.050000      -0.020204
                                                         0.096935       0.099516
                                                         0.300899      -0.447162
                                                         0.937529       0.000000
                                                         4.145546       0.000000
                          1       5    4dz2              0.050000      -0.011665
                                                         0.096935       0.057456
                                                         0.300899      -0.258169
                                                         0.937529       0.000000
                                                         4.145546       0.000000

                          1       6    4fx3              0.050000      -0.000180
                                                         0.096935       0.008160
                                                         0.300899       0.004002
                                                         0.937529       0.000000
                                                         4.145546       0.000000
                          1       6    4fx2y             0.050000      -0.000402
                                                         0.096935       0.018246
                                                         0.300899       0.008949
                                                         0.937529       0.000000
                                                         4.145546       0.000000
                          1       6    4fx2z             0.050000      -0.000402
                                                         0.096935       0.018246
                                                         0.300899       0.008949
                                                         0.937529       0.000000
                                                         4.145546       0.000000
                          1       6    4fxy2             0.050000      -0.000402
                                                         0.096935       0.018246
                                                         0.300899       0.008949
                                                         0.937529       0.000000
                                                         4.145546       0.000000
                          1       6    4fxyz             0.050000      -0.000696
                                                         0.096935       0.031603
                                                         0.300899       0.015500
                                                         0.937529       0.000000
                                                         4.145546       0.000000
                          1       6    4fxz2             0.050000      -0.000402
                                                         0.096935       0.018246
                                                         0.300899       0.008949
                                                         0.937529       0.000000
                                                         4.145546       0.000000
                          1       6    4fy3              0.050000      -0.000180
                                                         0.096935       0.008160
                                                         0.300899       0.004002
                                                         0.937529       0.000000
                                                         4.145546       0.000000
                          1       6    4fy2z             0.050000      -0.000402
                                                         0.096935       0.018246
                                                         0.300899       0.008949
                                                         0.937529       0.000000
                                                         4.145546       0.000000
                          1       6    4fyz2             0.050000      -0.000402
                                                         0.096935       0.018246
                                                         0.300899       0.008949
                                                         0.937529       0.000000
                                                         4.145546       0.000000
                          1       6    4fz3              0.050000      -0.000180
                                                         0.096935       0.008160
                                                         0.300899       0.004002
                                                         0.937529       0.000000
                                                         4.145546       0.000000

                          2       1    1s                0.060000       0.000000
                                                         0.161278       0.024253
                                                         0.523772      -0.029268
                                                         3.176528       0.666384

                          2       2    2s                0.060000       0.000000
                                                         0.161278       0.080328
                                                         0.523772       0.279468
                                                         3.176528      -0.079506

                          2       3    3s                0.060000       0.000000
                                                         0.161278       0.225687
                                                         0.523772      -0.382710
                                                         3.176528      -0.308205

                          2       4    4s                0.060000      -0.055653
                                                         0.161278      -0.019607
                                                         0.523772       0.500289
                                                         3.176528       0.067234

     AE Potential information for                                            ALL

       Description:                                       All-electron potential
                                          Krack, Parrinello, PCCP 2, 2105 (2000)

       Gaussian exponent of the core charge distribution:               4.109048
       Electronic configuration (s p d ...):                           4   2   0

  2. Atomic kind: H                                     Number of atoms:       1

     Orbital Basis Set                                        aug-DZVP-MOLOPT-ae

       Number of orbital shell sets:                                           1
       Number of orbital shells:                                               5
       Number of primitive Cartesian functions:                                5
       Number of Cartesian basis functions:                                    9
       Number of spherical basis functions:                                    9
       Norm type:                                                              2

       Normalised Cartesian orbitals:

                        Set   Shell   Orbital            Exponent    Coefficient

                          1       1    2s                0.035000       0.000000
                                                         0.111920       0.009149
                                                         0.374948       0.205449
                                                         1.446686       0.373852
                                                        12.248855       0.310040

                          1       2    3s                0.035000       0.000000
                                                         0.111920       0.143650
                                                         0.374948       0.007287
                                                         1.446686      -0.188851
                                                        12.248855      -0.144753

                          1       3    4s                0.035000       0.090463
                                                         0.111920      -0.203934
                                                         0.374948      -0.000376
                                                         1.446686      -0.000051
                                                        12.248855       0.000000

                          1       4    3px               0.035000       0.000000
                                                         0.111920       0.007225
                                                         0.374948       0.280770
                                                         1.446686       0.896497
                                                        12.248855      -0.764411
                          1       4    3py               0.035000       0.000000
                                                         0.111920       0.007225
                                                         0.374948       0.280770
                                                         1.446686       0.896497
                                                        12.248855      -0.764411
                          1       4    3pz               0.035000       0.000000
                                                         0.111920       0.007225
                                                         0.374948       0.280770
                                                         1.446686       0.896497
                                                        12.248855      -0.764411

                          1       5    4px               0.035000       0.011331
                                                         0.111920       0.048737
                                                         0.374948       0.028490
                                                         1.446686       0.035587
                                                        12.248855       0.000000
                          1       5    4py               0.035000       0.011331
                                                         0.111920       0.048737
                                                         0.374948       0.028490
                                                         1.446686       0.035587
                                                        12.248855       0.000000
                          1       5    4pz               0.035000       0.011331
                                                         0.111920       0.048737
                                                         0.374948       0.028490
                                                         1.446686       0.035587
                                                        12.248855       0.000000

     RI Auxiliary Basis Set             RI_aug-DZVP-MOLOPT-ae_N_RI_009_s_p_d_f_g

       Number of orbital shell sets:                                           5
       Number of orbital shells:                                               5
       Number of primitive Cartesian functions:                                5
       Number of Cartesian basis functions:                                    9
       Number of spherical basis functions:                                    9
       Norm type:                                                              2

       Normalised Cartesian orbitals:

                        Set   Shell   Orbital            Exponent    Coefficient

                          1       1    4px               0.330315       0.356944
                          1       1    4py               0.330315       0.356944
                          1       1    4pz               0.330315       0.356944

                          2       1    1s                0.373568       0.340555

                          3       1    2s                0.886477       0.651119

                          4       1    5px               1.451319       2.270616
                          4       1    5py               1.451319       2.270616
                          4       1    5pz               1.451319       2.270616

                          5       1    3s                5.028848       2.393379

       Atomic covalent radius [Angstrom]:                                  0.320

       Atomic van der Waals radius [Angstrom]:                             1.090

     The atoms of this atomic kind are PAW atoms (GAPW):
       Hard Gaussian function radius:                                      1.200
       Rho0 radius:                                                        1.200
       Maximum GTO radius used for PAW projector construction:            24.566

     GAPW Soft Basis Set                                 aug-DZVP-MOLOPT-ae_soft

       Number of orbital shell sets:                                           1
       Number of orbital shells:                                               5
       Number of primitive Cartesian functions:                                4
       Number of Cartesian basis functions:                                    9
       Number of spherical basis functions:                                    9
       Norm type:                                                              2

       Normalised Cartesian orbitals:

                        Set   Shell   Orbital            Exponent    Coefficient

                          1       1    2s                0.035000       0.000000
                                                         0.111920       0.009149
                                                         0.374948       0.205449
                                                         1.446686       0.373852

                          1       2    3s                0.035000       0.000000
                                                         0.111920       0.143650
                                                         0.374948       0.007287
                                                         1.446686      -0.188851

                          1       3    4s                0.035000       0.090463
                                                         0.111920      -0.203934
                                                         0.374948      -0.000376
                                                         1.446686      -0.000051

                          1       4    3px               0.035000       0.000000
                                                         0.111920       0.007225
                                                         0.374948       0.280770
                                                         1.446686       0.896497
                          1       4    3py               0.035000       0.000000
                                                         0.111920       0.007225
                                                         0.374948       0.280770
                                                         1.446686       0.896497
                          1       4    3pz               0.035000       0.000000
                                                         0.111920       0.007225
                                                         0.374948       0.280770
                                                         1.446686       0.896497

                          1       5    4px               0.035000       0.011331
                                                         0.111920       0.048737
                                                         0.374948       0.028490
                                                         1.446686       0.035587
                          1       5    4py               0.035000       0.011331
                                                         0.111920       0.048737
                                                         0.374948       0.028490
                                                         1.446686       0.035587
                          1       5    4pz               0.035000       0.011331
                                                         0.111920       0.048737
                                                         0.374948       0.028490
                                                         1.446686       0.035587

     AE Potential information for                                            ALL

       Description:                                       All-electron potential
                                          Krack, Parrinello, PCCP 2, 2105 (2000)

       Gaussian exponent of the core charge distribution:              12.500000
       Electronic configuration (s p d ...):                           1   0   0

  3. Atomic kind: N                                     Number of atoms:       1

     Orbital Basis Set                                        aug-DZVP-MOLOPT-ae

       Number of orbital shell sets:                                           2
       Number of orbital shells:                                              10
       Number of primitive Cartesian functions:                               12
       Number of Cartesian basis functions:                                   35
       Number of spherical basis functions:                                   30
       Norm type:                                                              2

       Normalised Cartesian orbitals:

                        Set   Shell   Orbital            Exponent    Coefficient

                          1       1    2s                0.060000      -0.096639
                                                         0.166384       0.037538
                                                         0.634073      -0.055669
                                                         2.325354       0.000000
                                                        12.268174       0.000000

                          1       2    3px               0.060000       0.000000
                                                         0.166384      -0.031930
                                                         0.634073      -0.492962
                                                         2.325354      -1.380142
                                                        12.268174      -2.349358
                          1       2    3py               0.060000       0.000000
                                                         0.166384      -0.031930
                                                         0.634073      -0.492962
                                                         2.325354      -1.380142
                                                        12.268174      -2.349358
                          1       2    3pz               0.060000       0.000000
                                                         0.166384      -0.031930
                                                         0.634073      -0.492962
                                                         2.325354      -1.380142
                                                        12.268174      -2.349358

                          1       3    4px               0.060000       0.000000
                                                         0.166384       0.169694
                                                         0.634073      -0.220766
                                                         2.325354      -0.809234
                                                        12.268174      -0.998521
                          1       3    4py               0.060000       0.000000
                                                         0.166384       0.169694
                                                         0.634073      -0.220766
                                                         2.325354      -0.809234
                                                        12.268174      -0.998521
                          1       3    4pz               0.060000       0.000000
                                                         0.166384       0.169694
                                                         0.634073      -0.220766
                                                         2.325354      -0.809234
                                                        12.268174      -0.998521

                          1       4    5px               0.060000       0.028594
                                                         0.166384       0.063224
                                                         0.634073      -0.046183
                                                         2.325354       0.000000
                                                        12.268174       0.000000
                          1       4    5py               0.060000       0.028594
                                                         0.166384       0.063224
                                                         0.634073      -0.046183
                                                         2.325354       0.000000
                                                        12.268174       0.000000
                          1       4    5pz               0.060000       0.028594
                                                         0.166384       0.063224
                                                         0.634073      -0.046183
                                                         2.325354       0.000000
                                                        12.268174       0.000000

                          1       5    4dx2              0.060000       0.000000
                                                         0.166384       0.019402
                                                         0.634073       0.555487
                                                         2.325354       1.255926
                                                        12.268174      -0.426175
                          1       5    4dxy              0.060000       0.000000
                                                         0.166384       0.033606
                                                         0.634073       0.962132
                                                         2.325354       2.175327
                                                        12.268174      -0.738157
                          1       5    4dxz              0.060000       0.000000
                                                         0.166384       0.033606
                                                         0.634073       0.962132
                                                         2.325354       2.175327
                                                        12.268174      -0.738157
                          1       5    4dy2              0.060000       0.000000
                                                         0.166384       0.019402
                                                         0.634073       0.555487
                                                         2.325354       1.255926
                                                        12.268174      -0.426175
                          1       5    4dyz              0.060000       0.000000
                                                         0.166384       0.033606
                                                         0.634073       0.962132
                                                         2.325354       2.175327
                                                        12.268174      -0.738157
                          1       5    4dz2              0.060000       0.000000
                                                         0.166384       0.019402
                                                         0.634073       0.555487
                                                         2.325354       1.255926
                                                        12.268174      -0.426175

                          1       6    5dx2              0.060000      -0.008089
                                                         0.166384      -0.027907
                                                         0.634073      -0.057221
                                                         2.325354       0.000000
                                                        12.268174       0.000000
                          1       6    5dxy              0.060000      -0.014011
                                                         0.166384      -0.048336
                                                         0.634073      -0.099109
                                                         2.325354       0.000000
                                                        12.268174       0.000000
                          1       6    5dxz              0.060000      -0.014011
                                                         0.166384      -0.048336
                                                         0.634073      -0.099109
                                                         2.325354       0.000000
                                                        12.268174       0.000000
                          1       6    5dy2              0.060000      -0.008089
                                                         0.166384      -0.027907
                                                         0.634073      -0.057221
                                                         2.325354       0.000000
                                                        12.268174       0.000000
                          1       6    5dyz              0.060000      -0.014011
                                                         0.166384      -0.048336
                                                         0.634073      -0.099109
                                                         2.325354       0.000000
                                                        12.268174       0.000000
                          1       6    5dz2              0.060000      -0.008089
                                                         0.166384      -0.027907
                                                         0.634073      -0.057221
                                                         2.325354       0.000000
                                                        12.268174       0.000000

                          1       7    5fx3              0.060000       0.000067
                                                         0.166384       0.012645
                                                         0.634073       0.328269
                                                         2.325354       1.687172
                                                        12.268174       0.000000
                          1       7    5fx2y             0.060000       0.000150
                                                         0.166384       0.028275
                                                         0.634073       0.734031
                                                         2.325354       3.772631
                                                        12.268174       0.000000
                          1       7    5fx2z             0.060000       0.000150
                                                         0.166384       0.028275
                                                         0.634073       0.734031
                                                         2.325354       3.772631
                                                        12.268174       0.000000
                          1       7    5fxy2             0.060000       0.000150
                                                         0.166384       0.028275
                                                         0.634073       0.734031
                                                         2.325354       3.772631
                                                        12.268174       0.000000
                          1       7    5fxyz             0.060000       0.000260
                                                         0.166384       0.048973
                                                         0.634073       1.271379
                                                         2.325354       6.534389
                                                        12.268174       0.000000
                          1       7    5fxz2             0.060000       0.000150
                                                         0.166384       0.028275
                                                         0.634073       0.734031
                                                         2.325354       3.772631
                                                        12.268174       0.000000
                          1       7    5fy3              0.060000       0.000067
                                                         0.166384       0.012645
                                                         0.634073       0.328269
                                                         2.325354       1.687172
                                                        12.268174       0.000000
                          1       7    5fy2z             0.060000       0.000150
                                                         0.166384       0.028275
                                                         0.634073       0.734031
                                                         2.325354       3.772631
                                                        12.268174       0.000000
                          1       7    5fyz2             0.060000       0.000150
                                                         0.166384       0.028275
                                                         0.634073       0.734031
                                                         2.325354       3.772631
                                                        12.268174       0.000000
                          1       7    5fz3              0.060000       0.000067
                                                         0.166384       0.012645
                                                         0.634073       0.328269
                                                         2.325354       1.687172
                                                        12.268174       0.000000

                          2       1    1s                0.191012      -0.002582
                                                         0.666629       0.012902
                                                         4.403487      -0.858326
                                                        14.651380      -2.749170
                                                        57.692026      -2.958222
                                                       257.997554      -1.897300
                                                      1713.054433      -1.166486

                          2       2    2s                0.191012       0.079194
                                                         0.666629       0.351708
                                                         4.403487       0.009155
                                                        14.651380       0.000424
                                                        57.692026       0.772862
                                                       257.997554      -0.458166
                                                      1713.054433       0.520658

                          2       3    3s                0.191012       0.300064
                                                         0.666629      -0.436823
                                                         4.403487      -0.072962
                                                        14.651380      -0.095292
                                                        57.692026      -1.262420
                                                       257.997554       0.741400
                                                      1713.054433      -0.270364

     RI Auxiliary Basis Set             RI_aug-DZVP-MOLOPT-ae_N_RI_056_s_p_d_f_g

       Number of orbital shell sets:                                          16
       Number of orbital shells:                                              16
       Number of primitive Cartesian functions:                               16
       Number of Cartesian basis functions:                                   71
       Number of spherical basis functions:                                   56
       Norm type:                                                              2

       Normalised Cartesian orbitals:

                        Set   Shell   Orbital            Exponent    Coefficient

                          1       1    1s                0.294979       0.285268

                          2       1    7px               0.368800       0.409664
[...]
 calculate_rho_elec                 479  7.2    1.170    1.659   89.719   89.726
 mp_alltoall_z22v                  7539 14.4   82.775   85.675   82.775   85.675
 tddfpt_apply_coulomb               140  9.0    0.003    0.004   71.035   71.338
 integrate_four_center              617  9.5   14.195   28.229   70.293   70.658
 mp_alltoall_d54                    477 10.6   22.842   66.426   22.842   66.426
 xc_pw_derive                      2193 11.0    0.023    0.029   59.025   59.735
 density_rs2pw                      479  8.2    0.028    0.034   57.121   58.612
 prepare_gapw_den                   478  8.3    0.010    0.012   56.524   56.734
 hfx_ks_matrix                      337  8.0    0.012    0.014   55.864   56.142
 x_to_yz                           3149 13.7    4.400    6.302   50.421   51.335
 qs_vxc_create                      337  8.0    0.004    0.004   47.280   47.281
 transfer_rs2pw                    2395  9.4    0.072    0.103   40.561   41.564
 yz_to_x                           2926 13.5    2.832    3.178   39.331   41.261
 init_scf_loop                        1  4.0    0.000    0.000   39.483   39.483
 mp_sync                           3478 11.4   25.687   39.273   25.687   39.273
 xc_rho_set_and_dset_create         338 10.0    0.440    0.524   28.699   34.048
 grid_collocate_task_list           479  8.2   29.447   31.934   29.447   31.934
 mp_alltoall_d45                    478 10.6   26.458   31.433   26.458   31.433
 transfer_pw2rs                    1490 10.5    0.021    0.026   29.226   29.768
 xc_pw_divergence                   253 10.6    0.009    0.012   28.693   29.364
 calculate_rho_atom                1912  9.3    3.972   29.296    3.972   29.296
 integrate_v_rspace                 253  9.0    0.006    0.007   28.549   28.734
 mp_waitany                      132198 11.9   25.786   28.300   25.786   28.300
 tddfpt_apply_xc_analytic           140  9.0    0.105    0.120   27.342   27.820
 put_rho0_on_grid                   478  9.3    1.194    1.730   26.554   26.764
 mp_sum_d                         11221 10.0   24.187   26.247   24.187   26.247
 potential_pw2rs                    253 10.0    0.056    0.072   25.910   26.147
 mp_sum_dv                        28397 11.1   25.771   25.977   25.771   25.977
 calc_screening_functions             1 10.0   22.084   24.277   22.860   25.063
 xc_vxc_pw_create                   113  9.0    0.355    0.487   24.311   24.311
 transfer_rs2pw_250                 958 10.7    8.718    9.441   22.297   23.495
 xc_exc_calc                        224  9.0    0.545    0.776   22.966   22.966
 mp_alltoall_d11v                 16302 11.9   14.853   21.314   14.853   21.314
 transfer_pw2rs_250                 731 11.1    6.433    7.231   19.156   19.875
 gaVxcgb_GC                        1012  9.6    0.100   19.223    0.100   19.223
 integrate_vhg0_rspace              477  8.6    0.434    0.537   18.633   19.063
 tddfpt_apply_hfx                     7  8.0    0.003    0.003   17.098   17.099
 xc_calc_2nd_deriv_analytical      1260 10.0    0.757    0.873   16.257   16.286
 tddft_hfx_matrix                   280  9.0    0.007    0.008   14.454   14.542
 integrate_four_center_main         617 10.5    0.152    8.248    0.587   14.100
 calculate_xc_2nd_deriv_atom        140  9.0    0.035    2.384    0.110   13.653
 integrate_four_center_bin        48969 11.5    0.435   13.640    0.435   13.640
 sum_up_and_integrate               113  8.0    0.001    0.002   12.573   12.615
 calculate_vxc_atom                 337  8.0    0.212    3.028   12.302   12.304
 qs_scf_new_mos                     337  5.0    0.002    0.002   10.826   10.857
 qs_scf_loop_do_ot                  337  6.0    0.002    0.002   10.824   10.856
 ot_scf_mini                        337  7.0    0.004    0.005   10.208   10.241
 transfer_rs2pw_30                  479 10.2    4.200    4.338    9.869   10.014
 dbcsr_multiply_generic            5224  9.9    0.214    0.233    9.284    9.423
 mp_waitall_1                   1095394 13.3    6.764    8.433    6.764    8.433
 mp_sendrecv_dv                  182978 11.2    7.417    7.671    7.417    7.671
 cp2k_distribution_to_z_slices      477  9.6    2.779    3.251    6.934    7.490
 xc_functional_eval                4154 11.0    0.003    0.012    1.925    7.436
 pbe_lda_eval                      4154 12.0    1.922    7.425    1.922    7.425
 mp_sum_dm                         5772  8.6    5.842    6.624    5.842    6.624
 pw_scatter_p                      3655 12.8    6.081    6.400    6.081    6.400
 cp_dbcsr_sm_fm_multiply            889  8.5    0.019    0.021    5.793    5.878
 rs_grid_zero                      1940 11.1    5.438    5.854    5.438    5.854
 mp_isend_dm3                     15990 11.9    1.247    5.835    1.247    5.835
 transfer_rs2pw_90                  479 10.2    1.419    1.563    5.492    5.813
 qs_ot_get_p                        338  8.0    0.002    0.002    5.254    5.261
 transfer_pw2rs_30                  253 12.0    2.301    2.476    5.077    5.226
 pw_gather_p                       3884 12.1    4.482    5.087    4.482    5.087
 pw_derive                         3624 11.4    4.693    5.046    4.693    5.046
 dbcsr_complete_redistribute       3488 10.8    0.135    0.185    4.945    5.028
 multiply_cannon                   5224 10.9    0.528    0.542    4.684    4.967
 fft_wrap_pw1pw2_90                 732 10.8    0.133    0.248    4.145    4.682
 Vh_1c_gg_integrals                 477  8.6    0.067    3.876    4.435    4.555
 qs_ot_p2m_diag                     337  9.0    0.007    0.012    4.088    4.125
 mp_sum_l                         23865 10.7    3.312    3.976    3.312    3.976
 pw_copy                           5760 10.7    3.710    3.885    3.710    3.885
 transfer_pw2rs_90                  253 12.0    0.824    0.905    3.404    3.826
 multiply_cannon_loop              5224 11.9    0.809    0.896    3.538    3.822
 copy_dbcsr_to_fm                  1271  9.8    0.017    0.018    3.670    3.704
 mp_isendrecv_dv                 332340 11.9    2.365    3.529    2.365    3.529
 pw_poisson_set                     478  9.6    0.013    0.017    3.342    3.437
 copy_fm_to_dbcsr                  2215  9.8    0.010    0.011    3.014    3.103
 ot_mini                            337  8.0    0.002    0.002    3.073    3.093
 transfer_rs2pw_10                  479 10.2    1.083    1.147    2.831    2.896
 cp_dbcsr_syevd                     337 10.0    0.019    0.020    2.869    2.882
 integrate_four_center_load         617 10.5    0.002    0.002    2.236    2.838
 hfx_load_balance                     1 11.0    0.000    0.000    2.234    2.837
 qs_ot_get_derivative               113  9.0    0.001    0.001    2.822    2.827
 hfx_load_balance_range               1 12.0    0.000    0.000    2.219    2.822
 calculate_rho_atom_coeff           479  7.2    0.105    0.212    2.765    2.768
 make_m2s                         10448 10.9    0.177    0.191    2.590    2.685
 rs_gather_matrices                 253 10.0    0.003    0.015    2.493    2.683
 pw_copy_to_array                  3884 12.1    1.870    2.674    1.870    2.674
 mp_alltoall_i11v                 12072 11.9    2.570    2.572    2.570    2.572
 grid_integrate_task_list           253 10.0    0.140    2.538    0.140    2.538
 integrate_four_center_getP         617 10.5    0.187    0.214    2.377    2.454
 mp_isend_dv                     351789 13.2    1.483    2.381    1.483    2.381
 pw_integral_ab_c1d_c1d_gs          477  9.6    1.745    1.765    2.226    2.370
 qs_ot_get_derivative_diag          112 10.0    0.002    0.003    2.186    2.190
 mp_irecv_dm3                     15990 11.9    0.969    2.137    0.969    2.137
 make_images                      10448 11.9    0.493    0.503    2.007    2.058
 cp_fm_syevd                        386 10.6    0.002    0.003    1.839    1.845
 integrate_four_center_dist_KS      617 10.5    0.187    0.212    1.795    1.812
 dbcsr_desymmetrize_deep           1272 10.8    0.033    0.036    1.647    1.673
 transfer_pw2rs_10                  253 12.0    0.596    0.750    1.568    1.661
 pw_axpy                           3798  9.8    1.482    1.605    1.482    1.605
 mp_max_i                           945  6.2    1.355    1.596    1.355    1.596
 pw_copy_from_array                3655 12.8    1.272    1.528    1.272    1.528
 fft_wrap_pw1pw2_30                 732 10.8    0.023    0.026    1.425    1.510
 mp_alltoall_z11v                  1464 13.8    1.374    1.456    1.374    1.456
 cp_dbcsr_sm_fm_multiply_core       889  9.5    0.002    0.002    1.379    1.444
 powell_optimize                 564978 11.0    1.394    1.437    1.394    1.437
 cp_fm_redistribute_end             386 11.6    0.836    1.419    0.850    1.436
 pw_zero                           3624 10.4    1.238    1.342    1.238    1.342
 multiply_cannon_metrocomm3      125376 12.9    0.377    0.399    0.975    1.302
 calc_pair_dist_radii                 1 10.0    0.616    0.639    1.235    1.258
 tddfpt_orthonormalize_psi1_psi       8  6.9    0.015    0.016    1.247    1.248
 qs_ot_get_orbitals                 337  8.0    0.001    0.001    1.220    1.230
 cp_fm_syevd_base                   386 11.6    0.575    1.157    0.575    1.157
 update_ks_atom                     477  8.3    0.075    0.142    0.778    1.030
 offload_free_buffer                485  9.5    0.528    1.002    0.528    1.002
 tddfpt_apply_energy_diff             7  8.0    0.001    0.001    0.992    0.992
 mp_bcast_dm                       4156  9.5    0.717    0.973    0.717    0.973
 hybrid_alltoall_any              11720 13.6    0.103    0.115    0.916    0.953
 make_images_sizes                10448 12.9    0.011    0.012    0.911    0.938
 mp_alltoall_i44                  10448 13.9    0.899    0.927    0.899    0.927
 tddfpt_print_nto_analysis            1  6.0    0.002    0.003    0.870    0.870
 xz_to_yz                           958 12.2    0.059    0.077    0.837    0.853
 cp_dbcsr_plus_fm_fm_t              141  9.0    0.002    0.002    0.841    0.849
 multiply_cannon_metrocomm4      120152 12.9    0.363    0.411    0.707    0.813
 scale_and_distribute               954 10.6    0.654    0.797    0.654    0.797
 tddfpt_compute_residual_vects        6  7.0    0.001    0.001    0.761    0.761
 fft_wrap_pw1pw2_10                 732 10.8    0.008    0.008    0.720    0.732
 vxc_of_r_new                      2696  9.0    0.000    0.059    0.004    0.726
 yz_to_xz                           506 14.0    0.048    0.055    0.643    0.711
 multiply_cannon_metrocomm2      109704 12.9    0.330    0.361    0.607    0.693
 pw_poisson_rebuild                 477  9.6    0.000    0.001    0.639    0.658
 ps_wavelet_create                    1 10.0    0.000    0.000    0.639    0.657
 RS_z_slice_distribution              1 11.0    0.520    0.613    0.639    0.657
 mp_alltoall_i22                   4872 11.9    0.528    0.650    0.528    0.650
 calculate_rho0_atom               1912  9.3    0.596    0.634    0.596    0.634
 calculate_dm_sparse                338  7.0    0.001    0.001    0.618    0.627
 arnoldi_extremal                   338  9.0    0.006    0.007    0.537    0.550
 arnoldi_normal_ev                  339 10.0    0.006    0.007    0.532    0.546
 mp_rank_compare                   7539 13.4    0.511    0.533    0.511    0.533
 parallel_gemm_fm                  1183  8.4    0.001    0.002    0.492    0.503
 parallel_gemm_fm_gemm             1183  9.4    0.002    0.002    0.490    0.502
 cp_fm_gemm                        1183 10.4    0.489    0.501    0.489    0.501
 xc_2nd_deriv_of_r                 1120 10.0    0.000    0.082    0.003    0.497
 cp_fm_geeig                         20  7.0    0.001    0.001    0.444    0.445
 dbcsr_make_images_dense           7760 11.9    0.111    0.128    0.299    0.427
 cp_fm_redistribute_start           386 11.6    0.328    0.335    0.412    0.423
 build_subspace                     339 11.0    0.016    0.019    0.392    0.395
 dbcsr_create_new                 94902 12.2    0.279    0.291    0.373    0.387
 dbcsr_finalize                   12706 11.3    0.059    0.088    0.270    0.381
 mp_allgather_i34                  5224 11.9    0.351    0.378    0.351    0.378
 make_images_data                 10448 12.9    0.116    0.148    0.248    0.372
 prepare_dr1dr                     1260 11.0    0.227    0.370    0.227    0.370
 qs_energies_init_hamiltonians        1  3.0    0.000    0.000    0.359    0.359
 build_core_hamiltonian_matrix        1  4.0    0.000    0.000    0.350    0.350
 overlap_condnum                      1  5.0    0.000    0.000    0.347    0.348
 multiply_cannon_metrocomm1      125376 12.9    0.138    0.144    0.257    0.339
 dbcsr_matrix_vector_mult          3627 12.0    0.033    0.035    0.179    0.322
 dbcsr_make_dense_low             18780 12.8    0.095    0.099    0.143    0.315
 mp_irecv_dv                     349538 13.2    0.260    0.315    0.260    0.315
 tddfpt_construct_ground_state_       1  6.0    0.000    0.000    0.310    0.313
 rs_scatter_matrices                479  8.2    0.004    0.009    0.287    0.295
 init_scf_run                         1  3.0    0.000    0.000    0.287    0.287
 scf_env_initial_rho_setup            1  4.0    0.000    0.000    0.287    0.287
 mp_cart_sub                       2546 11.8    0.279    0.282    0.279    0.282
 multiply_cannon_multrec         125376 12.9    0.160    0.236    0.182    0.258
 arnoldi_conjugate_gradient           5  6.0    0.006    0.008    0.254    0.254
 cp_fm_trace_a1b1t1_aa            10080  8.0    0.048    0.053    0.251    0.253
 mp_cart_create                    3184 10.3    0.200    0.229    0.204    0.235
 ot_new_cg_direction                113  9.0    0.001    0.001    0.229    0.230
 mp_isend_iv                     250587 13.9    0.195    0.227    0.195    0.227
 create_qs_kind_set                   1  2.0    0.000    0.000    0.222    0.226
 read_qs_kind                         4  3.0    0.099    0.102    0.221    0.225
 rs_grid_create                     483  9.5    0.002    0.003    0.030    0.215
 offload_create_buffer              485 10.5    0.028    0.213    0.028    0.213
 dbcsr_iterator_start             94328 12.3    0.096    0.176    0.115    0.213
 cube_transpose_2                   958 12.2    0.019    0.021    0.192    0.210
 dbcsr_merge_all                  11281 12.2    0.121    0.164    0.149    0.209
 apply_preconditioner_dbcsr         114 10.0    0.000    0.000    0.194    0.204
 apply_single                       114 11.0    0.000    0.000    0.194    0.204
 qs_init_subsys                       1  2.0    0.005    0.005    0.197    0.197
 dbcsr_special_finalize           20896 12.9    0.050    0.052    0.163    0.195
 dbcsr_new_transposed              2418 10.8    0.014    0.015    0.192    0.194
 dbcsr_sym_matrix_vector_mult      1103  7.6    0.017    0.020    0.133    0.183
 qs_env_setup                         1  3.0    0.000    0.000    0.173    0.175
 qs_env_rebuild_pw_env                2  3.5    0.000    0.000    0.172    0.174
 pw_env_rebuild                       1  5.0    0.001    0.001    0.171    0.174
 make_dense_data                  18780 13.8    0.008    0.072    0.009    0.172
 dbcsr_destroy                    90871 11.4    0.117    0.128    0.155    0.170
 dbcsr_col_vec_to_rep_row          4730 12.0    0.033    0.035    0.081    0.166
 mp_sum_b                          7761 10.9    0.151    0.154    0.151    0.154
 dbcsr_redistribute                 112 12.0    0.004    0.005    0.151    0.154
 pw_scale                           732  9.5    0.124    0.153    0.124    0.153
 dbcsr_add_d                       2344  8.4    0.003    0.004    0.018    0.148
 dbcsr_add_anytype                 2344  9.4    0.004    0.019    0.015    0.145
 create_kernel_env                    1  6.0    0.000    0.000    0.121    0.145
 xc_prep_2nd_deriv                    1  7.0    0.000    0.000    0.121    0.145
 dbcsr_data_new                  267376 12.9    0.108    0.141    0.108    0.141
 pw_grid_setup                        4  6.0    0.000    0.000    0.139    0.141
 pw_grid_setup_internal               4  7.0    0.004    0.005    0.139    0.141
 Gram_Schmidt_ortho                3394 11.9    0.004    0.006    0.108    0.141
 dbcsr_data_release              461022 13.1    0.116    0.140    0.116    0.140
 dbcsr_iterator_stop              94328 12.3    0.070    0.115    0.086    0.136
 parser_read_line                 17976  4.0    0.006    0.007    0.123    0.131
 mp_irecv_iv                     249292 13.9    0.109    0.124    0.109    0.124
 parser_read_line_low                31  5.0    0.020    0.049    0.116    0.124
 dbcsr_make_dense                  3260 11.1    0.014    0.015    0.072    0.123
 mp_cart_rank                    366752 10.1    0.098    0.114    0.098    0.114
 dbcsr_work_create                33561 12.4    0.063    0.074    0.089    0.112
 broadcast_input_information         31  6.0    0.036    0.041    0.097    0.104
 arnoldi_init                       339 11.0    0.004    0.005    0.091    0.103
 cube_transpose_1                   506 14.0    0.009    0.010    0.091    0.102
 mp_bcast_dv                       5116 12.9    0.032    0.102    0.032    0.102
 setup_buffer_matrices            10448 11.9    0.032    0.033    0.097    0.100
 tddfpt_compute_ritz_vects            7  7.0    0.004    0.005    0.096    0.096
 dbcsr_work_destroy_all           33561 13.4    0.057    0.067    0.076    0.093
 dbcsr_dot                         1127  8.7    0.007    0.010    0.083    0.091
 tddfpt_orthogonalize_psi1_psi0       8  6.9    0.000    0.000    0.084    0.091
 dbcsr_make_undense                3260 11.1    0.021    0.041    0.041    0.090
 dbcsr_copy                       11045  9.4    0.038    0.040    0.078    0.084
 write_mo_set_to_restart            337  5.0    0.005    0.021    0.080    0.084
 quick_finalize                   16388 13.9    0.037    0.047    0.061    0.081
 copy_fm_to_dbcsr_bc               2215 10.8    0.024    0.027    0.068    0.079
 dbcsr_mm_multrec_init             5224 11.9    0.010    0.012    0.071    0.079
 pw_grid_sort                         4  8.0    0.048    0.049    0.075    0.079
 cp_fm_cholesky_decompose            23  7.9    0.070    0.071    0.070    0.071
 dbcsr_mm_csr_init                 5224 12.9    0.049    0.055    0.062    0.069
 mp_sum_iv                         1824 10.4    0.051    0.065    0.051    0.065
 dbcsr_rep_row_to_rep_col_vec      1103  8.6    0.005    0.007    0.026    0.064
 dbcsr_make_untransposed_blocks    6825 10.8    0.038    0.039    0.061    0.063
 mp_bcast_b                        3738 11.9    0.039    0.060    0.039    0.060
 dbcsr_switch_data_area           44662 13.8    0.041    0.042    0.056    0.059
 cp_fm_triangular_invert             20  8.0    0.058    0.059    0.058    0.059
 scf_post_calculation_gpw             1  3.0    0.000    0.000    0.057    0.057
 write_available_results              1  4.0    0.000    0.000    0.057    0.057
 write_mo_free_results                1  5.0    0.003    0.005    0.057    0.057
 dbcsr_make_index_exist           94902 13.2    0.052    0.056    0.052    0.056
 mp_comm_split                      386 12.6    0.053    0.055    0.054    0.056
 -------------------------------------------------------------------------------

 The number of warnings for this run is : 2
 
 -------------------------------------------------------------------------------
  **** **** ******  **  PROGRAM ENDED AT                 2025-04-20 16:19:30.177
 ***** ** ***  *** **   PROGRAM RAN ON                              i02r03c03s01
 **    ****   ******    PROGRAM RAN BY                                   di38fab
 ***** **    ** ** **   PROGRAM PROCESS ID                               4086234
  **** **  *******  **  PROGRAM STOPPED IN /hppfs/scratch/04/di38fab/05_MOL/W4-1
                                           1+ALK/hcno/DZVP/TDDFT/1e-4
