 DBCSR| CPU Multiplication driver                                           BLAS (U)
 DBCSR| Multrec recursion limit                                              512 (U)
 DBCSR| Multiplication stack size                                           1000 (D)
 DBCSR| Maximum elements for images                                    UNLIMITED (U)
 DBCSR| Multiplicative factor virtual images                                   1 (U)
 DBCSR| Use multiplication densification                                       T (D)
 DBCSR| Multiplication size stacks                                             3 (U)
 DBCSR| Use memory pool for CPU allocation                                     F (U)
 DBCSR| Number of 3D layers                                               SINGLE (U)
 DBCSR| Use MPI memory allocation                                              F (U)
 DBCSR| Use RMA algorithm                                                      F (U)
 DBCSR| Use Communication thread                                               T (U)
 DBCSR| Communication thread load                                             45 (D)
 DBCSR| MPI: My process id                                                     0
 DBCSR| MPI: Number of processes                                             512
 DBCSR| OMP: Current number of threads                                        12
 DBCSR| OMP: Max number of threads                                            12
 DBCSR| Split modifier for TAS multiplication algorithm                  1.0E+00 (U)


  **** **** ******  **  PROGRAM STARTED AT               2025-04-17 07:14:07.190
 ***** ** ***  *** **   PROGRAM STARTED ON                          i03r01c03s11
 **    ****   ******    PROGRAM STARTED BY                               di38fab
 ***** **    ** ** **   PROGRAM PROCESS ID                               2786410
  **** **  *******  **  PROGRAM STARTED IN /hppfs/scratch/04/di38fab/05_MOL/aUKB
                                           qsEOTmq69kFe5R_nOg/5k_set_final_qzvp/
                                           BOLNAR/aug-cc-pV5Z/TDDFT

 CP2K| version string:                 CP2K version 2025.1 (Development Version)
 CP2K| source code revision number:                             unknown revision
 CP2K| cp2kflags: omp libint fftw3 libxc parallel scalapack max_contr=4         
 CP2K| is freely available from                            https://www.cp2k.org/
 CP2K| Program compiled at                         Thu Apr 10 16:20:23 CEST 2025
 CP2K| Program compiled on                                               login01
 CP2K| Program compiled for                                        Supermuc-foss
 CP2K| Data directory path                  /hppfs/work/pn36zo/di38fab/cp2k/data
 CP2K| Input file name                                                    GW.inp

 GLOBAL| Force Environment number                                              1
 GLOBAL| Basis set file name            /hppfs/scratch/04/di38fab/04_TMD/BASIS_A
 GLOBAL| Potential file name            /hppfs/work/pn36zo/di38fab/cp2k/data/ALL
 GLOBAL| MM Potential file name                                     MM_POTENTIAL
 GLOBAL| Coordinate file name                                      __STD_INPUT__
 GLOBAL| Method name                                                        CP2K
 GLOBAL| Project name                                                       MoS2
 GLOBAL| Run type                                                         ENERGY
 GLOBAL| FFT library                                                       FFTW3
 GLOBAL| Diagonalization library                                       ScaLAPACK
 GLOBAL| DGEMM library                                                      BLAS
 GLOBAL| Orthonormality check for eigenvectors                          DISABLED
 GLOBAL| Matrix multiplication library                                 ScaLAPACK
 GLOBAL| All-to-all communication in single precision                          F
 GLOBAL| FFTs using library dependent lengths                                  F
 GLOBAL| Grid backend                                                       AUTO
 GLOBAL| Global print level                                               MEDIUM
 GLOBAL| MPI I/O enabled                                                       T
 GLOBAL| Total number of message passing processes                           512
 GLOBAL| Number of threads for this process                                   12
 GLOBAL| This output is from process                                           0
 GLOBAL| OpenMP stack size per thread (OMP_STACKSIZE)                    default
 GLOBAL| CPU model name             Intel(R) Xeon(R) Platinum 8174 CPU @ 3.10GHz

 MEMORY| system memory details [Kb]
 MEMORY|                        rank 0           min           max       average
 MEMORY| MemTotal             98436660      98432004      98436900      98436627
 MEMORY| MemFree              86011736      85423280      86814256      86026773
 MEMORY| Buffers                     0             0             0             0
 MEMORY| Cached                2331668       2288008       2365540       2339148
 MEMORY| Slab                  1063320        923344       1100724       1071970
 MEMORY| SReclaimable           244948        201472        265088        251103
 MEMORY| MemLikelyFree        88588352      88042052      89323700      88617025


 *** Fundamental physical constants (SI units) ***

 *** Literature: B. J. Mohr and B. N. Taylor,
 ***             CODATA recommended values of the fundamental physical
 ***             constants: 2006, Web Version 5.1
 ***             http://physics.nist.gov/constants

 Speed of light in vacuum [m/s]                             2.99792458000000E+08
 Magnetic constant or permeability of vacuum [N/A**2]       1.25663706143592E-06
 Electric constant or permittivity of vacuum [F/m]          8.85418781762039E-12
 Planck constant (h) [J*s]                                  6.62606896000000E-34
 Planck constant (h-bar) [J*s]                              1.05457162825177E-34
 Elementary charge [C]                                      1.60217648700000E-19
 Electron mass [kg]                                         9.10938215000000E-31
 Electron g factor [ ]                                     -2.00231930436220E+00
 Proton mass [kg]                                           1.67262163700000E-27
 Fine-structure constant                                    7.29735253760000E-03
 Rydberg constant [1/m]                                     1.09737315685270E+07
 Avogadro constant [1/mol]                                  6.02214179000000E+23
 Boltzmann constant [J/K]                                   1.38065040000000E-23
 Atomic mass unit [kg]                                      1.66053878200000E-27
 Bohr radius [m]                                            5.29177208590000E-11

 *** Conversion factors ***

 [u] -> [a.u.]                                              1.82288848426455E+03
 [Angstrom] -> [Bohr] = [a.u.]                              1.88972613288564E+00
 [a.u.] = [Bohr] -> [Angstrom]                              5.29177208590000E-01
 [a.u.] -> [s]                                              2.41888432650478E-17
 [a.u.] -> [fs]                                             2.41888432650478E-02
 [a.u.] -> [J]                                              4.35974393937059E-18
 [a.u.] -> [N]                                              8.23872205491840E-08
 [a.u.] -> [K]                                              3.15774647902944E+05
 [a.u.] -> [kJ/mol]                                         2.62549961709828E+03
 [a.u.] -> [kcal/mol]                                       6.27509468713739E+02
 [a.u.] -> [Pa]                                             2.94210107994716E+13
 [a.u.] -> [bar]                                            2.94210107994716E+08
 [a.u.] -> [atm]                                            2.90362800883016E+08
 [a.u.] -> [eV]                                             2.72113838565563E+01
 [a.u.] -> [Hz]                                             6.57968392072181E+15
 [a.u.] -> [1/cm] (wave numbers)                            2.19474631370540E+05
 [a.u./Bohr**2] -> [1/cm]                                   5.14048714338585E+03
 

 CELL_TOP| Volume [angstrom^3]:                                     27000.000000
 CELL_TOP| Vector a [angstrom    30.000     0.000     0.000   |a| =    30.000000
 CELL_TOP| Vector b [angstrom     0.000    30.000     0.000   |b| =    30.000000
 CELL_TOP| Vector c [angstrom     0.000     0.000    30.000   |c| =    30.000000
 CELL_TOP| Angle (b,c), alpha [degree]:                                90.000000
 CELL_TOP| Angle (a,c), beta  [degree]:                                90.000000
 CELL_TOP| Angle (a,b), gamma [degree]:                                90.000000
 CELL_TOP| Numerically orthorhombic:                                         YES
 CELL_TOP| Periodicity                                                      NONE

 GENERATE|  Preliminary Number of Bonds generated:                             0
 GENERATE|  Achieved consistency in connectivity generation.

 CELL| Volume [angstrom^3]:                                         27000.000000
 CELL| Vector a [angstrom]:      30.000     0.000     0.000   |a| =    30.000000
 CELL| Vector b [angstrom]:       0.000    30.000     0.000   |b| =    30.000000
 CELL| Vector c [angstrom]:       0.000     0.000    30.000   |c| =    30.000000
 CELL| Angle (b,c), alpha [degree]:                                    90.000000
 CELL| Angle (a,c), beta  [degree]:                                    90.000000
 CELL| Angle (a,b), gamma [degree]:                                    90.000000
 CELL| Numerically orthorhombic:                                             YES
 CELL| Periodicity                                                          NONE

 CELL_REF| Volume [angstrom^3]:                                     27000.000000
 CELL_REF| Vector a [angstrom    30.000     0.000     0.000   |a| =    30.000000
 CELL_REF| Vector b [angstrom     0.000    30.000     0.000   |b| =    30.000000
 CELL_REF| Vector c [angstrom     0.000     0.000    30.000   |c| =    30.000000
 CELL_REF| Angle (b,c), alpha [degree]:                                90.000000
 CELL_REF| Angle (a,c), beta  [degree]:                                90.000000
 CELL_REF| Angle (a,b), gamma [degree]:                                90.000000
 CELL_REF| Numerically orthorhombic:                                         YES
 CELL_REF| Periodicity                                                      NONE

 *******************************************************************************
 *******************************************************************************
 **                                                                           **
 **     #####                         ##              ##                      **
 **    ##   ##            ##          ##              ##                      **
 **   ##     ##                       ##            ######                    **
 **   ##     ##  ##   ##  ##   #####  ##  ##   ####   ##    #####    #####    **
 **   ##     ##  ##   ##  ##  ##      ## ##   ##      ##   ##   ##  ##   ##   **
 **   ##  ## ##  ##   ##  ##  ##      ####     ###    ##   ######   ######    **
 **    ##  ###   ##   ##  ##  ##      ## ##      ##   ##   ##       ##        **
 **     #######   #####   ##   #####  ##  ##  ####    ##    #####   ##        **
 **           ##                                                    ##        **
 **                                                                           **
 **                                                ... make the atoms dance   **
 **                                                                           **
 **            Copyright (C) by CP2K developers group (2000-2025)             **
 **                      J. Chem. Phys. 152, 194103 (2020)                    **
 **                                                                           **
 *******************************************************************************

 DFT| Spin restricted Kohn-Sham (RKS) calculation                            RKS
 DFT| Multiplicity                                                             1
 DFT| Number of spin states                                                    1
 DFT| Charge                                                                   0
 DFT| Self-interaction correction (SIC)                                       NO
 DFT| Cutoffs: density                                              1.000000E-10
 DFT|          gradient                                             1.000000E-10
 DFT|          tau                                                  1.000000E-10
 DFT|          cutoff_smoothing_range                               0.000000E+00
 DFT| XC density smoothing                                                  NONE
 DFT| XC derivatives                                                          PW

 FUNCTIONAL| PBE:
 FUNCTIONAL| J.P.Perdew, K.Burke, M.Ernzerhof, Phys. Rev. Letter, vol. 77, n 18,
 FUNCTIONAL|  pp. 3865-3868, (1996)sx=0.750sc=1.000{spin unpolarized}           


 QS| Method:                                                                GAPW
 QS| Density plane wave grid type                        NON-SPHERICAL FULLSPACE
 QS| Number of grid levels:                                                    4
 QS| Density cutoff [a.u.]:                                                250.0
 QS| Multi grid cutoff [a.u.]: 1) grid level                               250.0
 QS|                           2) grid level                                83.3
 QS|                           3) grid level                                27.8
 QS|                           4) grid level                                 9.3
 QS| Grid level progression factor:                                          3.0
 QS| Relative density cutoff [a.u.]:                                        50.0
 QS| Interaction thresholds: eps_pgf_orb:                                1.0E-12
 QS|                         eps_filter_matrix:                          0.0E+00
 QS|                         eps_core_charge:                            1.0E-14
 QS|                         eps_rho_gspace:                             1.0E-12
 QS|                         eps_rho_rspace:                             1.0E-12
 QS|                         eps_gvg_rspace:                             1.0E-06
 QS|                         eps_ppl:                                    1.0E-02
 QS|                         eps_ppnl:                                   1.0E-08
 QS| GAPW|      One center basis from orbital basis primitives
 QS| GAPW|                   eps_fit:                                    1.0E-04
 QS| GAPW|                   eps_iso:                                    1.0E-12
 QS| GAPW|                   eps_svd:                                    1.0E-08
 QS| GAPW|                   eps_cpc:                                    1.0E-12
 QS| GAPW|   atom-r-grid: quadrature:                                     GC_LOG
 QS| GAPW|      atom-s-grid:  max l :                                         10
 QS| GAPW|      max_l_rho0 :                                                   2


 ATOMIC KIND INFORMATION

  1. Atomic kind: O                                     Number of atoms:       4

     Orbital Basis Set                                               aug-cc-pV5Z

       Number of orbital shell sets:                                          12
       Number of orbital shells:                                              27
       Number of primitive Cartesian functions:                               38
       Number of Cartesian basis functions:                                  182
       Number of spherical basis functions:                                  127
       Norm type:                                                              2

       Normalised Cartesian orbitals:

                        Set   Shell   Orbital            Exponent    Coefficient

                          1       1    1px               0.044600       0.029215
                          1       1    1py               0.044600       0.029215
                          1       1    1pz               0.044600       0.029215

                          2       1    1s                0.065500       0.092276

                          3       1    1px             195.500000       0.000000
                                                        46.160000       0.000000
                                                        14.580000       0.000000
                                                         5.296000       0.000000
                                                         2.094000       3.590550
                                                         0.847100       0.000000
                                                         0.336800       0.000000
                                                         0.128500       0.000000
                          3       1    1py             195.500000       0.000000
                                                        46.160000       0.000000
                                                        14.580000       0.000000
                                                         5.296000       0.000000
                                                         2.094000       3.590550
                                                         0.847100       0.000000
                                                         0.336800       0.000000
                                                         0.128500       0.000000
                          3       1    1pz             195.500000       0.000000
                                                        46.160000       0.000000
                                                        14.580000       0.000000
                                                         5.296000       0.000000
                                                         2.094000       3.590550
                                                         0.847100       0.000000
                                                         0.336800       0.000000
                                                         0.128500       0.000000

                          3       2    2px             195.500000       0.000000
                                                        46.160000       0.000000
                                                        14.580000       0.000000
                                                         5.296000       0.000000
                                                         2.094000       0.000000
                                                         0.847100       1.158400
                                                         0.336800       0.000000
                                                         0.128500       0.000000
                          3       2    2py             195.500000       0.000000
                                                        46.160000       0.000000
                                                        14.580000       0.000000
                                                         5.296000       0.000000
                                                         2.094000       0.000000
                                                         0.847100       1.158400
                                                         0.336800       0.000000
                                                         0.128500       0.000000
                          3       2    2pz             195.500000       0.000000
                                                        46.160000       0.000000
                                                        14.580000       0.000000
                                                         5.296000       0.000000
                                                         2.094000       0.000000
                                                         0.847100       1.158400
                                                         0.336800       0.000000
                                                         0.128500       0.000000

                          3       3    3px             195.500000       0.956569
                                                        46.160000       1.267066
                                                        14.580000       1.419658
                                                         5.296000       1.321897
                                                         2.094000       0.922064
                                                         0.847100       0.433170
                                                         0.336800       0.125607
                                                         0.128500       0.014224
                          3       3    3py             195.500000       0.956569
                                                        46.160000       1.267066
                                                        14.580000       1.419658
                                                         5.296000       1.321897
                                                         2.094000       0.922064
                                                         0.847100       0.433170
                                                         0.336800       0.125607
                                                         0.128500       0.014224
                          3       3    3pz             195.500000       0.956569
                                                        46.160000       1.267066
                                                        14.580000       1.419658
                                                         5.296000       1.321897
                                                         2.094000       0.922064
                                                         0.847100       0.433170
                                                         0.336800       0.125607
                                                         0.128500       0.014224

                          3       4    4px             195.500000       0.000000
                                                        46.160000       0.000000
                                                        14.580000       0.000000
                                                         5.296000       0.000000
                                                         2.094000       0.000000
                                                         0.847100       0.000000
                                                         0.336800       0.365725
                                                         0.128500       0.000000
                          3       4    4py             195.500000       0.000000
                                                        46.160000       0.000000
                                                        14.580000       0.000000
                                                         5.296000       0.000000
                                                         2.094000       0.000000
                                                         0.847100       0.000000
                                                         0.336800       0.365725
                                                         0.128500       0.000000
                          3       4    4pz             195.500000       0.000000
                                                        46.160000       0.000000
                                                        14.580000       0.000000
                                                         5.296000       0.000000
                                                         2.094000       0.000000
                                                         0.847100       0.000000
                                                         0.336800       0.365725
                                                         0.128500       0.000000

                          3       5    5px             195.500000       0.000000
                                                        46.160000       0.000000
                                                        14.580000       0.000000
                                                         5.296000       0.000000
                                                         2.094000       0.000000
                                                         0.847100       0.000000
                                                         0.336800       0.000000
                                                         0.128500       0.109665
                          3       5    5py             195.500000       0.000000
                                                        46.160000       0.000000
                                                        14.580000       0.000000
                                                         5.296000       0.000000
                                                         2.094000       0.000000
                                                         0.847100       0.000000
                                                         0.336800       0.000000
                                                         0.128500       0.109665
                          3       5    5pz             195.500000       0.000000
                                                        46.160000       0.000000
                                                        14.580000       0.000000
                                                         5.296000       0.000000
                                                         2.094000       0.000000
                                                         0.847100       0.000000
                                                         0.336800       0.000000
                                                         0.128500       0.109665

                          4       1    1dx2              0.131000       0.046950
                          4       1    1dxy              0.131000       0.081320
                          4       1    1dxz              0.131000       0.081320
                          4       1    1dy2              0.131000       0.046950
                          4       1    1dyz              0.131000       0.081320
                          4       1    1dz2              0.131000       0.046950

                          5       1    1s           164200.000000       0.151152
                                                     24590.000000       0.286901
                                                      5592.000000       0.495904
                                                      1582.000000       0.808436
                                                       516.100000       1.243088
                                                       187.200000       1.770469
                                                        73.930000       2.243564
                                                        31.220000       2.369157
                                                        13.810000       1.850408
                                                         6.256000       0.786713
                                                         2.776000       0.097410
                                                         1.138000       0.000835
                                                         0.460000       0.000455
                                                         0.182900      -0.000008

                          5       2    2s           164200.000000       0.000000
                                                     24590.000000       0.000000
                                                      5592.000000       0.000000
                                                      1582.000000       0.000000
                                                       516.100000       0.000000
                                                       187.200000       0.000000
                                                        73.930000       0.000000
                                                        31.220000       0.000000
                                                        13.810000       0.000000
                                                         6.256000       0.000000
                                                         2.776000       1.532762
                                                         1.138000       0.000000
                                                         0.460000       0.000000
                                                         0.182900       0.000000

                          5       3    3s           164200.000000       0.000000
                                                     24590.000000       0.000000
                                                      5592.000000       0.000000
                                                      1582.000000       0.000000
                                                       516.100000       0.000000
                                                       187.200000       0.000000
                                                        73.930000       0.000000
                                                        31.220000       0.000000
                                                        13.810000       0.000000
                                                         6.256000       0.000000
                                                         2.776000       0.000000
                                                         1.138000       0.785266
                                                         0.460000       0.000000
                                                         0.182900       0.000000

                          5       4    4s           164200.000000      -0.034881
                                                     24590.000000      -0.064378
                                                      5592.000000      -0.112454
                                                      1582.000000      -0.184320
                                                       516.100000      -0.284611
                                                       187.200000      -0.415303
                                                        73.930000      -0.546888
                                                        31.220000      -0.641477
                                                        13.810000      -0.614563
                                                         6.256000      -0.417981
                                                         2.776000       0.015182
                                                         1.138000       0.301767
                                                         0.460000       0.213695
                                                         0.182900       0.040401

                          5       5    5s           164200.000000       0.000000
                                                     24590.000000       0.000000
                                                      5592.000000       0.000000
                                                      1582.000000       0.000000
                                                       516.100000       0.000000
                                                       187.200000       0.000000
                                                        73.930000       0.000000
                                                        31.220000       0.000000
                                                        13.810000       0.000000
                                                         6.256000       0.000000
                                                         2.776000       0.000000
                                                         1.138000       0.000000
                                                         0.460000       0.398087
                                                         0.182900       0.000000

                          5       6    6s           164200.000000       0.000000
                                                     24590.000000       0.000000
                                                      5592.000000       0.000000
                                                      1582.000000       0.000000
                                                       516.100000       0.000000
                                                       187.200000       0.000000
                                                        73.930000       0.000000
                                                        31.220000       0.000000
                                                        13.810000       0.000000
                                                         6.256000       0.000000
                                                         2.776000       0.000000
                                                         1.138000       0.000000
                                                         0.460000       0.000000
                                                         0.182900       0.199329

                          6       1    1fx3              0.237000       0.057695
                          6       1    1fx2y             0.237000       0.129010
                          6       1    1fx2z             0.237000       0.129010
                          6       1    1fxy2             0.237000       0.129010
                          6       1    1fxyz             0.237000       0.223452
                          6       1    1fxz2             0.237000       0.129010
                          6       1    1fy3              0.237000       0.057695
                          6       1    1fy2z             0.237000       0.129010
                          6       1    1fyz2             0.237000       0.129010
                          6       1    1fz3              0.237000       0.057695

                          7       1    1dx2              5.879000      36.533435
                                                         2.307000       0.000000
                                                         0.905000       0.000000
                                                         0.355000       0.000000
                          7       1    1dxy              5.879000      63.277766
                                                         2.307000       0.000000
                                                         0.905000       0.000000
                                                         0.355000       0.000000
                          7       1    1dxz              5.879000      63.277766
                                                         2.307000       0.000000
                                                         0.905000       0.000000
                                                         0.355000       0.000000
                          7       1    1dy2              5.879000      36.533435
                                                         2.307000       0.000000
                                                         0.905000       0.000000
                                                         0.355000       0.000000
                          7       1    1dyz              5.879000      63.277766
                                                         2.307000       0.000000
                                                         0.905000       0.000000
                                                         0.355000       0.000000
                          7       1    1dz2              5.879000      36.533435
                                                         2.307000       0.000000
                                                         0.905000       0.000000
                                                         0.355000       0.000000

                          7       2    2dx2              5.879000       0.000000
                                                         2.307000       7.107924
                                                         0.905000       0.000000
                                                         0.355000       0.000000
                          7       2    2dxy              5.879000       0.000000
                                                         2.307000      12.311285
                                                         0.905000       0.000000
                                                         0.355000       0.000000
                          7       2    2dxz              5.879000       0.000000
                                                         2.307000      12.311285
                                                         0.905000       0.000000
                                                         0.355000       0.000000
                          7       2    2dy2              5.879000       0.000000
                                                         2.307000       7.107924
                                                         0.905000       0.000000
                                                         0.355000       0.000000
                          7       2    2dyz              5.879000       0.000000
                                                         2.307000      12.311285
                                                         0.905000       0.000000
                                                         0.355000       0.000000
                          7       2    2dz2              5.879000       0.000000
                                                         2.307000       7.107924
                                                         0.905000       0.000000
                                                         0.355000       0.000000

                          7       3    3dx2              5.879000       0.000000
                                                         2.307000       0.000000
                                                         0.905000       1.382116
                                                         0.355000       0.000000
                          7       3    3dxy              5.879000       0.000000
                                                         2.307000       0.000000
                                                         0.905000       2.393895
                                                         0.355000       0.000000
                          7       3    3dxz              5.879000       0.000000
                                                         2.307000       0.000000
                                                         0.905000       2.393895
                                                         0.355000       0.000000
                          7       3    3dy2              5.879000       0.000000
                                                         2.307000       0.000000
                                                         0.905000       1.382116
                                                         0.355000       0.000000
                          7       3    3dyz              5.879000       0.000000
                                                         2.307000       0.000000
                                                         0.905000       2.393895
                                                         0.355000       0.000000
                          7       3    3dz2              5.879000       0.000000
                                                         2.307000       0.000000
                                                         0.905000       1.382116
                                                         0.355000       0.000000

                          7       4    4dx2              5.879000       0.000000
                                                         2.307000       0.000000
                                                         0.905000       0.000000
                                                         0.355000       0.268726
                          7       4    4dxy              5.879000       0.000000
                                                         2.307000       0.000000
                                                         0.905000       0.000000
                                                         0.355000       0.465446
                          7       4    4dxz              5.879000       0.000000
                                                         2.307000       0.000000
                                                         0.905000       0.000000
                                                         0.355000       0.465446
                          7       4    4dy2              5.879000       0.000000
                                                         2.307000       0.000000
                                                         0.905000       0.000000
                                                         0.355000       0.268726
                          7       4    4dyz              5.879000       0.000000
                                                         2.307000       0.000000
                                                         0.905000       0.000000
                                                         0.355000       0.465446
                          7       4    4dz2              5.879000       0.000000
                                                         2.307000       0.000000
                                                         0.905000       0.000000
                                                         0.355000       0.268726

                          8       1    1gx4              0.517000       0.181357
                          8       1    1gx3y             0.517000       0.479826
                          8       1    1gx3z             0.517000       0.479826
                          8       1    1gx2y2            0.517000       0.619452
                          8       1    1gx2yz            0.517000       1.072923
                          8       1    1gx2z2            0.517000       0.619452
                          8       1    1gxy3             0.517000       0.479826
                          8       1    1gxy2z            0.517000       1.072923
                          8       1    1gxyz2            0.517000       1.072923
                          8       1    1gxz3             0.517000       0.479826
                          8       1    1gy4              0.517000       0.181357
                          8       1    1gy3z             0.517000       0.479826
                          8       1    1gy2z2            0.517000       0.619452
                          8       1    1gyz3             0.517000       0.479826
                          8       1    1gz4              0.517000       0.181357

                          9       1    1fx3              4.016000      33.611685
                                                         1.554000       0.000000
                                                         0.601000       0.000000
                          9       1    1fx2y             4.016000      75.158012
                                                         1.554000       0.000000
                                                         0.601000       0.000000
                          9       1    1fx2z             4.016000      75.158012
                                                         1.554000       0.000000
                                                         0.601000       0.000000
                          9       1    1fxy2             4.016000      75.158012
                                                         1.554000       0.000000
                                                         0.601000       0.000000
                          9       1    1fxyz             4.016000     130.177496
                                                         1.554000       0.000000
                                                         0.601000       0.000000
                          9       1    1fxz2             4.016000      75.158012
                                                         1.554000       0.000000
                                                         0.601000       0.000000
                          9       1    1fy3              4.016000      33.611685
                                                         1.554000       0.000000
                                                         0.601000       0.000000
                          9       1    1fy2z             4.016000      75.158012
                                                         1.554000       0.000000
                                                         0.601000       0.000000
                          9       1    1fyz2             4.016000      75.158012
                                                         1.554000       0.000000
                                                         0.601000       0.000000
                          9       1    1fz3              4.016000      33.611685
                                                         1.554000       0.000000
                                                         0.601000       0.000000

                          9       2    2fx3              4.016000       0.000000
                                                         1.554000       3.969349
                                                         0.601000       0.000000
                          9       2    2fx2y             4.016000       0.000000
                                                         1.554000       8.875733
                                                         0.601000       0.000000
                          9       2    2fx2z             4.016000       0.000000
                                                         1.554000       8.875733
                                                         0.601000       0.000000
                          9       2    2fxy2             4.016000       0.000000
                                                         1.554000       8.875733
                                                         0.601000       0.000000
                          9       2    2fxyz             4.016000       0.000000
                                                         1.554000      15.373221
                                                         0.601000       0.000000
                          9       2    2fxz2             4.016000       0.000000
                                                         1.554000       8.875733
                                                         0.601000       0.000000
                          9       2    2fy3              4.016000       0.000000
                                                         1.554000       3.969349
                                                         0.601000       0.000000
                          9       2    2fy2z             4.016000       0.000000
                                                         1.554000       8.875733
                                                         0.601000       0.000000
                          9       2    2fyz2             4.016000       0.000000
                                                         1.554000       8.875733
                                                         0.601000       0.000000
                          9       2    2fz3              4.016000       0.000000
                                                         1.554000       3.969349
                                                         0.601000       0.000000

                          9       3    3fx3              4.016000       0.000000
                                                         1.554000       0.000000
                                                         0.601000       0.468190
                          9       3    3fx2y             4.016000       0.000000
                                                         1.554000       0.000000
                                                         0.601000       1.046904
                          9       3    3fx2z             4.016000       0.000000
                                                         1.554000       0.000000
                                                         0.601000       1.046904
                          9       3    3fxy2             4.016000       0.000000
                                                         1.554000       0.000000
                                                         0.601000       1.046904
                          9       3    3fxyz             4.016000       0.000000
                                                         1.554000       0.000000
                                                         0.601000       1.813292
                          9       3    3fxz2             4.016000       0.000000
                                                         1.554000       0.000000
                                                         0.601000       1.046904
                          9       3    3fy3              4.016000       0.000000
                                                         1.554000       0.000000
                                                         0.601000       0.468190
                          9       3    3fy2z             4.016000       0.000000
                                                         1.554000       0.000000
                                                         0.601000       1.046904
                          9       3    3fyz2             4.016000       0.000000
                                                         1.554000       0.000000
                                                         0.601000       1.046904
                          9       3    3fz3              4.016000       0.000000
                                                         1.554000       0.000000
                                                         0.601000       0.468190

                         10       1    1hx5              1.024000       0.801344
                         10       1    1hx4y             1.024000       2.404032
                         10       1    1hx4z             1.024000       2.404032
                         10       1    1hx3y2            1.024000       3.672220
                         10       1    1hx3yz            1.024000       6.360471
                         10       1    1hx3z2            1.024000       3.672220
                         10       1    1hx2y3            1.024000       3.672220
                         10       1    1hx2y2z           1.024000       8.211333
                         10       1    1hx2yz2           1.024000       8.211333
                         10       1    1hx2z3            1.024000       3.672220
                         10       1    1hxy4             1.024000       2.404032
                         10       1    1hxy3z            1.024000       6.360471
                         10       1    1hxy2z2           1.024000       8.211333
                         10       1    1hxyz3            1.024000       6.360471
                         10       1    1hxz4             1.024000       2.404032
                         10       1    1hy5              1.024000       0.801344
                         10       1    1hy4z             1.024000       2.404032
                         10       1    1hy3z2            1.024000       3.672220
                         10       1    1hy2z3            1.024000       3.672220
                         10       1    1hyz4             1.024000       2.404032
                         10       1    1hz5              1.024000       0.801344

                         11       1    1gx4              3.350000      30.924924
                                                         1.189000       0.000000
                         11       1    1gx3y             3.350000      81.819659
                                                         1.189000       0.000000
                         11       1    1gx3z             3.350000      81.819659
                                                         1.189000       0.000000
                         11       1    1gx2y2            3.350000     105.628725
                                                         1.189000       0.000000
                         11       1    1gx2yz            3.350000     182.954319
                                                         1.189000       0.000000
                         11       1    1gx2z2            3.350000     105.628725
                                                         1.189000       0.000000
                         11       1    1gxy3             3.350000      81.819659
                                                         1.189000       0.000000
                         11       1    1gxy2z            3.350000     182.954319
                                                         1.189000       0.000000
                         11       1    1gxyz2            3.350000     182.954319
                                                         1.189000       0.000000
                         11       1    1gxz3             3.350000      81.819659
                                                         1.189000       0.000000
                         11       1    1gy4              3.350000      30.924924
                                                         1.189000       0.000000
                         11       1    1gy3z             3.350000      81.819659
                                                         1.189000       0.000000
                         11       1    1gy2z2            3.350000     105.628725
                                                         1.189000       0.000000
                         11       1    1gyz3             3.350000      81.819659
                                                         1.189000       0.000000
                         11       1    1gz4              3.350000      30.924924
                                                         1.189000       0.000000

                         11       2    2gx4              3.350000       0.000000
                                                         1.189000       1.791371
                         11       2    2gx3y             3.350000       0.000000
                                                         1.189000       4.739522
                         11       2    2gx3z             3.350000       0.000000
                                                         1.189000       4.739522
                         11       2    2gx2y2            3.350000       0.000000
                                                         1.189000       6.118697
                         11       2    2gx2yz            3.350000       0.000000
                                                         1.189000      10.597893
                         11       2    2gx2z2            3.350000       0.000000
                                                         1.189000       6.118697
                         11       2    2gxy3             3.350000       0.000000
                                                         1.189000       4.739522
                         11       2    2gxy2z            3.350000       0.000000
                                                         1.189000      10.597893
                         11       2    2gxyz2            3.350000       0.000000
                                                         1.189000      10.597893
                         11       2    2gxz3             3.350000       0.000000
                                                         1.189000       4.739522
                         11       2    2gy4              3.350000       0.000000
                                                         1.189000       1.791371
                         11       2    2gy3z             3.350000       0.000000
                                                         1.189000       4.739522
                         11       2    2gy2z2            3.350000       0.000000
                                                         1.189000       6.118697
                         11       2    2gyz3             3.350000       0.000000
                                                         1.189000       4.739522
                         11       2    2gz4              3.350000       0.000000
                                                         1.189000       1.791371

                         12       1    1hx5              2.319000      11.417515
                         12       1    1hx4y             2.319000      34.252546
                         12       1    1hx4z             2.319000      34.252546
                         12       1    1hx3y2            2.319000      52.321628
                         12       1    1hx3yz            2.319000      90.623718
                         12       1    1hx3z2            2.319000      52.321628
                         12       1    1hx2y3            2.319000      52.321628
                         12       1    1hx2y2z           2.319000     116.994716
                         12       1    1hx2yz2           2.319000     116.994716
                         12       1    1hx2z3            2.319000      52.321628
                         12       1    1hxy4             2.319000      34.252546
                         12       1    1hxy3z            2.319000      90.623718
                         12       1    1hxy2z2           2.319000     116.994716
                         12       1    1hxyz3            2.319000      90.623718
                         12       1    1hxz4             2.319000      34.252546
                         12       1    1hy5              2.319000      11.417515
                         12       1    1hy4z             2.319000      34.252546
                         12       1    1hy3z2            2.319000      52.321628
                         12       1    1hy2z3            2.319000      52.321628
                         12       1    1hyz4             2.319000      34.252546
                         12       1    1hz5              2.319000      11.417515

     RI Auxiliary Basis Set                                    aug-cc-pV5Z-OPTRI

       Number of orbital shell sets:                                          22
       Number of orbital shells:                                              22
       Number of primitive Cartesian functions:                               22
       Number of Cartesian basis functions:                                  188
       Number of spherical basis functions:                                  122
       Norm type:                                                              2

       Normalised Cartesian orbitals:

                        Set   Shell   Orbital            Exponent    Coefficient

                          1       1    1px               0.192845       0.182159
                          1       1    1py               0.192845       0.182159
                          1       1    1pz               0.192845       0.182159

                          2       1    1s                0.274668       0.270406

                          3       1    1gx4              0.339769       0.057173
                          3       1    1gx3y             0.339769       0.151265
                          3       1    1gx3z             0.339769       0.151265
                          3       1    1gx2y2            0.339769       0.195283
                          3       1    1gx2yz            0.339769       0.338240
                          3       1    1gx2z2            0.339769       0.195283
                          3       1    1gxy3             0.339769       0.151265
                          3       1    1gxy2z            0.339769       0.338240
                          3       1    1gxyz2            0.339769       0.338240
                          3       1    1gxz3             0.339769       0.151265
                          3       1    1gy4              0.339769       0.057173
                          3       1    1gy3z             0.339769       0.151265
                          3       1    1gy2z2            0.339769       0.195283
                          3       1    1gyz3             0.339769       0.151265
                          3       1    1gz4              0.339769       0.057173

                          4       1    1px               0.521618       0.631874
                          4       1    1py               0.521618       0.631874
                          4       1    1pz               0.521618       0.631874

                          5       1    1hx5              0.685702       0.217663
                          5       1    1hx4y             0.685702       0.652988
                          5       1    1hx4z             0.685702       0.652988
                          5       1    1hx3y2            0.685702       0.997456
                          5       1    1hx3yz            0.685702       1.727645
                          5       1    1hx3z2            0.685702       0.997456
                          5       1    1hx2y3            0.685702       0.997456
                          5       1    1hx2y2z           0.685702       2.230380
                          5       1    1hx2yz2           0.685702       2.230380
                          5       1    1hx2z3            0.685702       0.997456
                          5       1    1hxy4             0.685702       0.652988
                          5       1    1hxy3z            0.685702       1.727645
                          5       1    1hxy2z2           0.685702       2.230380
                          5       1    1hxyz3            0.685702       1.727645
                          5       1    1hxz4             0.685702       0.652988
                          5       1    1hy5              0.685702       0.217663
                          5       1    1hy4z             0.685702       0.652988
                          5       1    1hy3z2            0.685702       0.997456
                          5       1    1hy2z3            0.685702       0.997456
                          5       1    1hyz4             0.685702       0.652988
                          5       1    1hz5              0.685702       0.217663

                          6       1    1s                0.758952       0.579523

                          7       1    1fx3              0.920013       1.220368
                          7       1    1fx2y             0.920013       2.728826
                          7       1    1fx2z             0.920013       2.728826
                          7       1    1fxy2             0.920013       2.728826
                          7       1    1fxyz             0.920013       4.726466
                          7       1    1fxz2             0.920013       2.728826
                          7       1    1fy3              0.920013       1.220368
                          7       1    1fy2z             0.920013       2.728826
                          7       1    1fyz2             0.920013       2.728826
                          7       1    1fz3              0.920013       1.220368

                          8       1    1px               1.316456       2.010009
                          8       1    1py               1.316456       2.010009
                          8       1    1pz               1.316456       2.010009

                          9       1    1dx2              1.359080       2.815712
                          9       1    1dxy              1.359080       4.876956
                          9       1    1dxz              1.359080       4.876956
                          9       1    1dy2              1.359080       2.815712
                          9       1    1dyz              1.359080       4.876956
                          9       1    1dz2              1.359080       2.815712

                         10       1    1s                1.708274       1.064948

                         11       1    1gx4              1.984321       7.326022
                         11       1    1gx3y             1.984321      19.382833
                         11       1    1gx3z             1.984321      19.382833
                         11       1    1gx2y2            1.984321      25.023130
                         11       1    1gx2yz            1.984321      43.341332
                         11       1    1gx2z2            1.984321      25.023130
                         11       1    1gxy3             1.984321      19.382833
                         11       1    1gxy2z            1.984321      43.341332
                         11       1    1gxyz2            1.984321      43.341332
                         11       1    1gxz3             1.984321      19.382833
                         11       1    1gy4              1.984321       7.326022
                         11       1    1gy3z             1.984321      19.382833
                         11       1    1gy2z2            1.984321      25.023130
                         11       1    1gyz3             1.984321      19.382833
                         11       1    1gz4              1.984321       7.326022

                         12       1    1ix6              2.226496       9.000363
                         12       1    1ix5y             2.226496      29.850826
                         12       1    1ix5z             2.226496      29.850826
                         12       1    1ix4y2            2.226496      51.703148
                         12       1    1ix4yz            2.226496      89.552479
                         12       1    1ix4z2            2.226496      51.703148
                         12       1    1ix3y3            2.226496      61.175990
                         12       1    1ix3y2z           2.226496     136.793672
                         12       1    1ix3yz2           2.226496     136.793672
                         12       1    1ix3z3            2.226496      61.175990
                         12       1    1ix2y4            2.226496      51.703148
                         12       1    1ix2y3z           2.226496     136.793672
                         12       1    1ix2y2z2          2.226496     176.599871
                         12       1    1ix2yz3           2.226496     136.793672
                         12       1    1ix2z4            2.226496      51.703148
                         12       1    1ixy5             2.226496      29.850826
                         12       1    1ixy4z            2.226496      89.552479
                         12       1    1ixy3z2           2.226496     136.793672
                         12       1    1ixy2z3           2.226496     136.793672
                         12       1    1ixyz4            2.226496      89.552479
                         12       1    1ixz5             2.226496      29.850826
                         12       1    1iy6              2.226496       9.000363
                         12       1    1iy5z             2.226496      29.850826
                         12       1    1iy4z2            2.226496      51.703148
                         12       1    1iy3z3            2.226496      61.175990
                         12       1    1iy2z4            2.226496      51.703148
                         12       1    1iyz5             2.226496      29.850826
                         12       1    1iz6              2.226496       9.000363

                         13       1    1fx3              2.442348      10.977954
                         13       1    1fx2y             2.442348      24.547452
                         13       1    1fx2z             2.442348      24.547452
                         13       1    1fxy2             2.442348      24.547452
                         13       1    1fxyz             2.442348      42.517435
                         13       1    1fxz2             2.442348      24.547452
                         13       1    1fy3              2.442348      10.977954
                         13       1    1fy2z             2.442348      24.547452
                         13       1    1fyz2             2.442348      24.547452
                         13       1    1fz3              2.442348      10.977954

                         14       1    1px               3.140498       5.959204
                         14       1    1py               3.140498       5.959204
                         14       1    1pz               3.140498       5.959204

                         15       1    1dx2              3.456503      14.421954
                         15       1    1dxy              3.456503      24.979557
                         15       1    1dxz              3.456503      24.979557
                         15       1    1dy2              3.456503      14.421954
                         15       1    1dyz              3.456503      24.979557
                         15       1    1dz2              3.456503      14.421954

                         16       1    1hx5              4.429012      93.506425
                         16       1    1hx4y             4.429012     280.519274
                         16       1    1hx4z             4.429012     280.519274
                         16       1    1hx3y2            4.429012     428.500269
                         16       1    1hx3yz            4.429012     742.184237
                         16       1    1hx3z2            4.429012     428.500269
                         16       1    1hx2y3            4.429012     428.500269
                         16       1    1hx2y2z           4.429012     958.155730
                         16       1    1hx2yz2           4.429012     958.155730
                         16       1    1hx2z3            4.429012     428.500269
                         16       1    1hxy4             4.429012     280.519274
                         16       1    1hxy3z            4.429012     742.184237
                         16       1    1hxy2z2           4.429012     958.155730
                         16       1    1hxyz3            4.429012     742.184237
                         16       1    1hxz4             4.429012     280.519274
                         16       1    1hy5              4.429012      93.506425
                         16       1    1hy4z             4.429012     280.519274
                         16       1    1hy3z2            4.429012     428.500269
                         16       1    1hy2z3            4.429012     428.500269
                         16       1    1hyz4             4.429012     280.519274
                         16       1    1hz5              4.429012      93.506425

                         17       1    1gx4              6.427916     185.621576
                         17       1    1gx3y             6.427916     491.108528
                         17       1    1gx3z             6.427916     491.108528
                         17       1    1gx2y2            6.427916     634.018383
                         17       1    1gx2yz            6.427916    1098.152053
                         17       1    1gx2z2            6.427916     634.018383
                         17       1    1gxy3             6.427916     491.108528
                         17       1    1gxy2z            6.427916    1098.152053
                         17       1    1gxyz2            6.427916    1098.152053
                         17       1    1gxz3             6.427916     491.108528
                         17       1    1gy4              6.427916     185.621576
                         17       1    1gy3z             6.427916     491.108528
                         17       1    1gy2z2            6.427916     634.018383
                         17       1    1gyz3             6.427916     491.108528
                         17       1    1gz4              6.427916     185.621576

                         18       1    1s                8.479764       3.541587

                         19       1    1px               8.953653      22.077018
                         19       1    1py               8.953653      22.077018
                         19       1    1pz               8.953653      22.077018

                         20       1    1dx2              9.321805      81.852977
                         20       1    1dxy              9.321805     141.773515
                         20       1    1dxz              9.321805     141.773515
                         20       1    1dy2              9.321805      81.852977
                         20       1    1dyz              9.321805     141.773515
                         20       1    1dz2              9.321805      81.852977

                         21       1    1fx3              9.907249     256.359181
                         21       1    1fx2y             9.907249     573.236556
                         21       1    1fx2z             9.907249     573.236556
                         21       1    1fxy2             9.907249     573.236556
                         21       1    1fxyz             9.907249     992.874840
                         21       1    1fxz2             9.907249     573.236556
                         21       1    1fy3              9.907249     256.359181
                         21       1    1fy2z             9.907249     573.236556
                         21       1    1fyz2             9.907249     573.236556
                         21       1    1fz3              9.907249     256.359181

                         22       1    1dx2             23.259092     405.458846
                         22       1    1dxy             23.259092     702.275322
                         22       1    1dxz             23.259092     702.275322
                         22       1    1dy2             23.259092     405.458846
                         22       1    1dyz             23.259092     702.275322
                         22       1    1dz2             23.259092     405.458846

       Atomic covalent radius [Angstrom]:                                  0.730

       Atomic van der Waals radius [Angstrom]:                             1.520

     The atoms of this atomic kind are PAW atoms (GAPW):
       Hard Gaussian function radius:                                      1.512
       Rho0 radius:                                                        1.512
       Maximum GTO radius used for PAW projector construction:            24.566

     GAPW Soft Basis Set                                        aug-cc-pV5Z_soft

       Number of orbital shell sets:                                          12
       Number of orbital shells:                                              27
       Number of primitive Cartesian functions:                               23
       Number of Cartesian basis functions:                                  182
       Number of spherical basis functions:                                  127
       Norm type:                                                              2

       Normalised Cartesian orbitals:

                        Set   Shell   Orbital            Exponent    Coefficient

                          1       1    1px               0.044600       0.029215
                          1       1    1py               0.044600       0.029215
                          1       1    1pz               0.044600       0.029215

                          2       1    1s                0.065500       0.092276

                          3       1    1px               2.094000       3.590550
                                                         0.847100       0.000000
                                                         0.336800       0.000000
                                                         0.128500       0.000000
                          3       1    1py               2.094000       3.590550
                                                         0.847100       0.000000
                                                         0.336800       0.000000
                                                         0.128500       0.000000
                          3       1    1pz               2.094000       3.590550
                                                         0.847100       0.000000
                                                         0.336800       0.000000
                                                         0.128500       0.000000

                          3       2    2px               2.094000       0.000000
                                                         0.847100       1.158400
                                                         0.336800       0.000000
                                                         0.128500       0.000000
                          3       2    2py               2.094000       0.000000
                                                         0.847100       1.158400
                                                         0.336800       0.000000
                                                         0.128500       0.000000
                          3       2    2pz               2.094000       0.000000
                                                         0.847100       1.158400
                                                         0.336800       0.000000
                                                         0.128500       0.000000

                          3       3    3px               2.094000       0.922064
                                                         0.847100       0.433170
                                                         0.336800       0.125607
                                                         0.128500       0.014224
                          3       3    3py               2.094000       0.922064
                                                         0.847100       0.433170
                                                         0.336800       0.125607
                                                         0.128500       0.014224
                          3       3    3pz               2.094000       0.922064
                                                         0.847100       0.433170
                                                         0.336800       0.125607
                                                         0.128500       0.014224

                          3       4    4px               2.094000       0.000000
                                                         0.847100       0.000000
                                                         0.336800       0.365725
                                                         0.128500       0.000000
                          3       4    4py               2.094000       0.000000
                                                         0.847100       0.000000
                                                         0.336800       0.365725
                                                         0.128500       0.000000
                          3       4    4pz               2.094000       0.000000
                                                         0.847100       0.000000
[...]
 WIREs Comput Mol Sci. 4, 15-25 (2014).
 CP2K: atomistic simulations of condensed matter systems.
 https://doi.org/10.1002/wcms.1159

 U. Borstnik, J. VandeVondele, V. Weber, J. Hutter.
 Parallel Comput. 40, 47-58 (2014).
 Sparse matrix multiplication: The distributed block-compressed sparse row 
 library.
 https://doi.org/10.1016/j.parco.2014.03.012

 M. Guidon, J. Hutter, J. VandeVondele.
 J. Chem. Theory Comput. 5, 3010-3021 (2009).
 Robust Periodic Hartree-Fock Exchange for Large-Scale Simulations Using 
 Gaussian Basis Sets.
 https://doi.org/10.1021/ct900494g

 M. Guidon, F. Schiffmann, J. Hutter, J. VandeVondele.
 J. Chem. Phys. 128, 214104 (2008).
 Ab initio molecular dynamics using hybrid density functionals.
 https://doi.org/10.1063/1.2931945

 L. Genovese, T. Deutsch, S. Goedecker.
 J. Chem. Phys. 127, 054704 (2007).
 Efficient and accurate three-dimensional Poisson solver for surface problems.
 https://doi.org/10.1063/1.2754685

 J. VandeVondele, J. Hutter.
 J. Chem. Phys. 127, 114105 (2007).
 Gaussian basis sets for accurate calculations on molecular systems in gas and 
 condensed phases.
 https://doi.org/10.1063/1.2770708

 L. Genovese, T. Deutsch, A. Neelov, S. Goedecker, G. Beylkin.
 J. Chem. Phys. 125, 074105 (2006).
 Efficient solution of Poisson's equation with free boundary conditions.
 https://doi.org/10.1063/1.2335442

 M. Iannuzzi, T. Chassaing, T. Wallman, J. Hutter.
 CHIMIA 59, 499-503 (2005).
 Ground and excited state density functional calculations with the Gaussian and 
 augmented-plane-wave method.
 https://doi.org/10.2533/000942905777676164

 M. Frigo, S. G. Johnson.
 Proc. IEEE 93, 216-231 (2005).
 The design and implementation of FFTW3.
 https://doi.org/10.1109/JPROC.2004.840301

 R. L. Martin.
 J. Chem. Phys. 118, 4775-4777 (2003).
 Natural transition orbitals.
 https://doi.org/10.1063/1.1558471

 M. Krack, M. Parrinello.
 Phys. Chem. Chem. Phys. 2, 2105-2112 (2000).
 All-electron ab-initio molecular dynamics.
 https://doi.org/10.1039/b001167n

 G. Lippert, J. Hutter, M. Parrinello.
 Theor. Chem. Acc. 103, 124-140 (1999).
 The Gaussian and augmented-plane-wave density functional method for ab initio 
 molecular dynamics simulations.
 https://doi.org/10.1007/s002140050523

 J. P. Perdew, K. Burke, M. Ernzerhof.
 Phys. Rev. Lett. 77, 3865-3868 (1996).
 Generalized gradient approximation made simple.
 https://doi.org/10.1103/PhysRevLett.77.3865


 -------------------------------------------------------------------------------
 -                                                                             -
 -                                T I M I N G                                  -
 -                                                                             -
 -------------------------------------------------------------------------------
 SUBROUTINE                       CALLS  ASD         SELF TIME        TOTAL TIME
                                MAXIMUM       AVERAGE  MAXIMUM  AVERAGE  MAXIMUM
 CP2K                                 1  1.0    0.482    0.637 2966.498 2966.499
 qs_energies                          1  2.0    0.000    0.001 2963.569 2963.570
 integrate_four_center              488  9.8   30.753   43.836 2241.796 2244.423
 integrate_four_center_main         488 10.8   83.072  259.306 1561.401 1857.636
 integrate_four_center_bin       153023 11.9 1478.328 1757.167 1478.328 1757.167
 qs_energies_properties               1  3.0    0.000    0.000 1688.874 1688.874
 tddfpt                               1  4.0    0.000    0.001 1688.874 1688.874
 tddfpt_energies                      1  5.0    0.000    0.000 1688.181 1688.181
 tddfpt_davidson_solver               1  6.0    0.002    0.005 1673.147 1673.150
 tddfpt_compute_Aop_evects           10  7.0    0.000    0.000 1663.914 1663.916
 scf_env_do_scf                       1  3.0    0.000    0.000 1267.076 1267.162
 scf_env_do_scf_inner_loop           88  4.0    0.003    0.006 1267.075 1267.162
 tddfpt_apply_hfx                    10  8.0    0.005    0.006 1221.819 1221.821
 tddft_hfx_matrix                   400  9.0    0.013    0.015 1205.093 1207.302
 qs_ks_update_qs_env                 88  5.0    0.001    0.001 1187.827 1188.486
 rebuild_ks_matrix                   88  6.0    0.000    0.000 1187.807 1188.466
 qs_ks_build_kohn_sham_matrix        88  7.0    0.012    0.014 1187.806 1188.465
 hfx_ks_matrix                       88  8.0    0.004    0.004 1036.725 1037.139
 mp_sync                           6056 13.4  384.469  553.124  384.469  553.124
 fhxc_kernel                         10  8.0    0.008    0.010  437.518  437.519
 prepare_gapw_den                   289  8.7    0.010    0.012  179.772  179.863
 calc_screening_functions             1 10.0  141.185  145.812  152.015  156.795
 mp_waitall_1                   1166908 12.9  104.940  155.463  104.940  155.463
 calculate_rho_atom                1156  9.7   22.448  139.000   22.448  139.001
 tddfpt_apply_coulomb               200  9.0    0.003    0.004  133.847  135.037
 mp_sum_dv                        51029  8.8  120.721  125.940  120.721  125.940
 qs_rho_update_rho_low              290  7.8    0.004    0.004  119.711  119.773
 integrate_v_rspace                 288  9.0    0.007    0.009  111.496  111.925
 mp_alltoall_d11v                 17780 11.6  106.533  110.789  106.533  110.789
 pw_poisson_solve                   288  9.4    0.937    1.089   95.544   96.731
 fft_wrap_pw1pw2                   5862 11.0    0.061    0.072   93.411   94.968
 gaVxcgb_GC                         576  9.7    1.534   94.691    1.534   94.691
 rs_gather_matrices                 288 10.0    0.056    0.263   90.158   93.120
 fft_wrap_pw1pw2_250               4128 12.1    0.849    0.926   89.846   91.469
 calculate_rho_elec                 290  8.8    0.270    0.287   91.402   91.456
 grid_integrate_task_list           288 10.0    2.721   89.779    2.721   89.779
 fft3d_pb                          4128 13.1    3.063    3.629   87.855   89.504
 mp_alltoall_z22v                  9990 15.1   84.668   86.953   84.668   86.953
 density_rs2pw                      290  9.8    0.013    0.016   72.266   77.926
 cube_transpose_1                  2972 13.8    0.202    0.265   73.518   76.567
 transfer_rs2pw                    1450 10.7    0.027    0.036   70.305   76.006
 cube_transpose_3                  2108 13.7    0.202    0.278    4.137   74.997
 calculate_xc_2nd_deriv_atom        200  9.0    0.119    5.243    1.212   71.408
 mp_sum_dm                        15749 10.0   67.755   68.732   67.755   68.732
 grid_collocate_task_list           290  9.8   15.455   65.983   15.455   65.983
 mp_waitany                       27758 12.8   45.703   63.399   45.703   63.399
 transfer_rs2pw_250                 580 11.7    1.023    1.232   41.843   60.712
 integrate_four_center_dist_KS      488 10.8    1.898    2.964   57.146   57.207
 integrate_vhg0_rspace              288  9.4   13.265   14.192   56.379   56.513
 integrate_four_center_getP         488 10.8    3.144    5.319   52.069   52.494
 transfer_rs2pw_90                  290 11.8    0.298    0.344   15.263   50.335
 mp_isendrecv_dv                 793072 12.3   13.717   46.288   13.717   46.288
 mp_sum_d                         17919  7.2   41.500   44.424   41.500   44.424
 cp_fm_syevd                        141  7.2    0.001    0.002   43.067   43.290
 cp_fm_redistribute_end             141  8.2   21.494   42.778   21.526   42.787
 cp_fm_syevd_base                   141  8.2   21.207   42.475   21.207   42.475
 qs_scf_new_mos                      88  5.0    0.001    0.002   40.209   40.381
 eigensolver_symm                    88  6.0    0.005    0.006   37.061   37.092
 cp_dbcsr_sm_fm_multiply           1246  8.6    0.034    0.044   31.739   35.792
 calculate_rho0_atom               1156  9.7   33.312   35.679   33.312   35.679
 sum_up_and_integrate                88  8.0    0.001    0.001   34.059   34.450
 calculate_vxc_atom                  88  8.0    0.071    1.184   30.117   30.119
 calculate_rho_atom_coeff           290  8.8    1.135    2.436   28.306   28.317
 dbcsr_complete_redistribute       4183 10.5    0.317    0.586   22.976   26.984
 copy_fm_to_dbcsr                  2823  9.5    0.017    0.043   17.165   21.184
 potential_pw2rs                    288 10.0    0.022    0.023   18.609   18.998
 powell_optimize                7126432 11.0   17.789   18.692   17.789   18.692
 transfer_pw2rs                    1441 10.9    0.015    0.019   17.583   18.317
 ps_wavelet_solve                   288 10.4   11.618   14.354   17.417   17.810
 copy_dbcsr_to_fm                  1358  9.3    0.033    0.037   13.485   15.157
 mp_alltoall_d54                    288 11.4    3.812   13.444    3.812   13.444
 tddfpt_print_nto_analysis            1  6.0    0.003    0.004   13.372   13.374
 mp_alltoall_i22                   5542 11.4    8.403   11.867    8.403   11.867
 cp_fm_geeig                         20  7.0    0.001    0.002   11.805   11.811
 dbcsr_multiply_generic            1734 10.3    0.093    0.119    9.599   10.964
 transfer_rs2pw_30                  290 11.8    3.369    3.880    9.783   10.705
 calc_pair_dist_radii                 1 10.0    2.990    3.090    9.949   10.320
 mp_alltoall_i11v                 13908 11.5    9.260    9.269    9.260    9.269
 mp_sendrecv_dv                  296380 12.8    8.922    9.207    8.922    9.207
 dbcsr_desymmetrize_deep           1359 10.3    0.042    0.070    7.458    9.119
 Vh_1c_gg_integrals                 288  9.4    0.199    8.770    8.860    8.893
 cp_dbcsr_sm_fm_multiply_core      1246  9.6    0.004    0.005    7.470    8.800
 mp_sum_l                          6610 10.6    5.332    8.427    5.332    8.427
 integrate_four_center_load         488 10.8    0.002    0.003    5.102    8.227
 hfx_load_balance                     1 11.0    0.000    0.000    5.100    8.225
 multiply_cannon                   1734 11.3    0.270    0.280    6.699    8.196
 xc_pw_derive                      1731 11.0    0.007    0.008    7.990    8.136
 hfx_load_balance_range               1 12.0    0.000    0.003    4.837    7.965
 transfer_pw2rs_30                  288 12.0    3.006    3.255    7.085    7.737
 multiply_cannon_loop              1734 12.3    0.536    0.615    5.765    7.128
 tddfpt_apply_xc_analytic           200  9.0    0.019    0.026    6.618    6.692
 qs_energies_init_hamiltonians        1  3.0    0.000    0.000    6.527    6.527
 build_core_hamiltonian_matrix        1  4.0    0.000    0.000    6.494    6.494
 overlap_condnum                      1  5.0    0.000    0.001    6.427    6.487
 transfer_pw2rs_250                 577 11.7    0.867    1.016    5.232    6.079
 update_ks_atom                     288  8.7    0.958    3.169    3.706    5.824
 arnoldi_conjugate_gradient           5  6.0    0.069    0.085    5.769    5.770
 put_rho0_on_grid                   289  9.7    0.321    0.471    5.381    5.474
 multiply_cannon_metrocomm3       55488 13.3    0.174    0.184    2.573    5.429
 xc_pw_divergence                   288 10.7    0.004    0.004    5.245    5.385
 cube_transpose_2                  2890 14.3    0.179    0.217    4.205    5.192
 tddfpt_orthonormalize_psi1_psi      11  6.9    0.029    0.032    4.999    5.004
 cp_dbcsr_plus_fm_fm_t              288  8.4    0.005    0.006    4.601    4.713
 tddfpt_apply_energy_diff            10  8.0    0.001    0.002    4.576    4.577
 parallel_gemm_fm                  1869  8.2    0.003    0.003    4.232    4.324
 parallel_gemm_fm_gemm             1869  9.2    0.003    0.003    4.229    4.321
 cp_fm_gemm                        1869 10.2    4.226    4.318    4.226    4.318
 multiply_cannon_metrocomm1       55488 13.3    0.094    0.100    1.349    4.073
 transfer_rs2pw_10                  290 11.8    0.882    0.972    3.389    4.053
 cube_transpose_4                  2020 14.6    0.189    0.231    3.589    3.952
 tddfpt_compute_residual_vects        9  7.0    0.001    0.002    3.886    3.886
 xc_calc_2nd_deriv_analytical      1000 10.1    0.128    0.200    3.745    3.830
 fft3d_ps                          1734 12.9    0.198    0.331    3.408    3.664
 dbcsr_sym_matrix_vector_mult     10015  7.0    0.161    0.179    3.106    3.498
 rs_scatter_matrices                290  9.8    0.009    0.025    3.230    3.429
 qs_vxc_create                       88  8.0    0.001    0.001    3.314    3.323
 xc_vxc_pw_create                    88  9.0    0.091    0.105    3.313    3.322
 hybrid_alltoall_any               4827 13.5    0.062    0.141    3.000    3.272
 transfer_pw2rs_10                  288 12.0    0.859    0.891    2.845    3.206
 mp_isend_dm3                     13878 12.8    0.975    2.974    0.975    2.974
 transfer_pw2rs_90                  288 12.0    0.233    0.258    2.405    2.968
 mp_alltoall_d45                    289 11.4    1.948    2.875    1.948    2.875
 mp_bcast_dm                      10368  9.7    2.749    2.815    2.749    2.815
 mp_irecv_dm3                     13878 12.8    0.799    2.744    0.799    2.744
 multiply_cannon_multrec          55488 13.3    0.448    2.445    0.457    2.454
 make_m2s                          3468 11.3    0.072    0.107    2.055    2.361
 dbcsr_add_d                      15093  7.0    0.014    0.017    0.257    2.357
 dbcsr_add_anytype                15093  8.0    0.018    0.173    0.243    2.341
 gspace_mixing                       87  5.0    0.081    0.085    2.325    2.328
 make_images                       3468 12.3    0.656    0.816    1.856    2.153
 multiply_cannon_metrocomm4       53754 13.3    0.165    0.181    0.527    2.107
 fft_wrap_pw1pw2_90                 578 11.9    0.031    0.088    1.767    1.988
 cp_fm_symm                          88  7.0    1.837    1.878    1.837    1.878
 broyden_mixing                      87  6.0    1.625    1.789    1.806    1.851
 mp_irecv_dv                     123656 14.1    0.277    1.847    0.277    1.847
 dbcsr_finalize                   23207 11.3    0.078    0.546    0.561    1.839
 cp_fm_triangular_multiply           60  8.0    1.802    1.808    1.802    1.808
 dbcsr_rep_row_to_rep_col_vec     10015  8.0    0.059    0.081    0.749    1.794
 cp2k_distribution_to_z_slices      288 10.4    0.570    0.647    1.587    1.648
 calculate_dm_sparse                 88  6.0    0.001    0.003    1.569    1.645
 xc_rho_set_and_dset_create          89 10.0    0.043    0.045    1.530    1.629
 create_qs_kind_set                   1  2.0    0.000    0.000    1.558    1.559
 read_qs_kind                         4  3.0    0.880    0.894    1.558    1.559
 dbcsr_col_vec_to_rep_row         10015  8.0    0.074    0.095    0.982    1.312
 yz_to_xz                           864 14.0    0.127    0.196    0.995    1.139
 cp_fm_triangular_invert             20  8.0    1.118    1.120    1.118    1.120
 cp_fm_cholesky_decompose            21  8.0    1.064    1.065    1.064    1.065
 tddfpt_construct_ground_state_       1  6.0    0.000    0.000    1.047    1.047
 fft_wrap_pw1pw2_30                 578 11.9    0.008    0.049    1.003    1.046
 mp_bcast_dv                      10156  9.0    0.616    1.021    0.616    1.021
 rs_grid_zero                      1443 11.9    0.830    0.999    0.830    0.999
 init_scf_run                         1  3.0    0.000    0.000    0.967    0.967
 dbcsr_merge_all                  21275 12.3    0.268    0.708    0.353    0.963
 xz_to_yz                           870 13.8    0.061    0.131    0.795    0.937
 mp_isend_dv                     126102 14.1    0.297    0.866    0.297    0.866
 dbcsr_sym_matrix_vector_mult_l   10015  8.0    0.178    0.709    0.293    0.823
 cp_fm_trace_a1b1t1_aa            20310  8.0    0.132    0.147    0.803    0.814
 make_images_sizes                 3468 13.3    0.004    0.005    0.736    0.788
 mp_alltoall_i44                   3468 14.3    0.732    0.784    0.732    0.784
 dbcsr_iterator_start            145385  9.4    0.367    0.632    0.405    0.781
 mp_rank_compare                   1734 13.9    0.727    0.754    0.727    0.754
 fft_wrap_pw1pw2_10                 578 11.9    0.004    0.029    0.734    0.743
 mp_allgather_i34                  1734 12.3    0.548    0.728    0.548    0.728
 pw_scatter_p                      2972 12.8    0.551    0.704    0.551    0.704
 parser_read_line                187505  4.0    0.063    0.071    0.678    0.686
 cp_fm_write_unformatted             45  7.4    0.210    0.638    0.231    0.684
 parser_read_line_low               207  5.0    0.059    0.269    0.615    0.623
 make_images_data                  3468 13.3    0.067    0.083    0.272    0.598
 qs_init_subsys                       1  2.0    0.011    0.012    0.587    0.587
 pw_integral_ab_c1d_c1d_gs          288 10.4    0.369    0.390    0.510    0.581
 broadcast_input_information        207  6.0    0.142    0.154    0.556    0.579
 cp_fm_redistribute_start           141  8.2    0.247    0.330    0.332    0.569
 multiply_cannon_metrocomm2       52020 13.3    0.160    0.173    0.322    0.568
 mp_send_dv                          45  8.4    0.021    0.566    0.021    0.566
 mp_max_i                           767  5.3    0.322    0.551    0.322    0.551
 pw_gather_p                       2890 13.3    0.414    0.514    0.414    0.514
 scf_env_initial_rho_setup            1  4.0    0.000    0.000    0.494    0.494
 pw_poisson_rebuild                 288 10.4    0.000    0.000    0.484    0.489
 ps_wavelet_create                    1 10.0    0.000    0.000    0.484    0.489
 RS_z_slice_distribution              1 11.0    0.423    0.470    0.484    0.489
 write_mo_set_to_restart             88  5.0    0.001    0.008    0.031    0.487
 write_mo_set_low                     5  6.0    0.000    0.001    0.030    0.483
 xc_functional_eval                1241 10.9    0.001    0.006    0.311    0.466
 tddfpt_init_mos                      1  5.0    0.000    0.000    0.465    0.466
 tddfpt_init_ground_state_mos         1  6.0    0.000    0.000    0.465    0.466
 pbe_lda_eval                      1241 11.9    0.310    0.461    0.310    0.461
 qs_env_setup                         1  3.0    0.000    0.000    0.436    0.454
 qs_env_rebuild_pw_env                2  3.5    0.000    0.000    0.435    0.452
 pw_env_rebuild                       1  5.0    0.000    0.001    0.434    0.452
 mp_cart_sub                       2723 11.3    0.441    0.444    0.441    0.444
 cp_fm_power                          1  6.0    0.003    0.006    0.434    0.435
 eigensolver                          1  7.0    0.000    0.000    0.424    0.425
 dbcsr_copy                       44308  7.8    0.244    0.292    0.360    0.420
 dbcsr_work_create                27836 12.2    0.096    0.257    0.151    0.409
 dbcsr_iterator_stop             145385  9.4    0.222    0.362    0.250    0.398
 mp_isend_zv                      61096 14.9    0.082    0.378    0.082    0.378
 mp_cart_create                    2515 10.6    0.320    0.356    0.322    0.358
 dbcsr_create_new                 67908  9.9    0.229    0.265    0.292    0.333
 dbcsr_work_destroy_all           27836 13.1    0.083    0.227    0.123    0.329
 mp_bcast_am_src                    207  7.0    0.223    0.294    0.242    0.309
 -------------------------------------------------------------------------------

 The number of warnings for this run is : 2
 
 -------------------------------------------------------------------------------
  **** **** ******  **  PROGRAM ENDED AT                 2025-04-17 08:03:34.375
 ***** ** ***  *** **   PROGRAM RAN ON                              i03r01c03s11
 **    ****   ******    PROGRAM RAN BY                                   di38fab
 ***** **    ** ** **   PROGRAM PROCESS ID                               2786410
  **** **  *******  **  PROGRAM STOPPED IN /hppfs/scratch/04/di38fab/05_MOL/aUKB
                                           qsEOTmq69kFe5R_nOg/5k_set_final_qzvp/
                                           BOLNAR/aug-cc-pV5Z/TDDFT
