 DBCSR| CPU Multiplication driver                                           BLAS (U)
 DBCSR| Multrec recursion limit                                              512 (U)
 DBCSR| Multiplication stack size                                           1000 (D)
 DBCSR| Maximum elements for images                                    UNLIMITED (U)
 DBCSR| Multiplicative factor virtual images                                   1 (U)
 DBCSR| Use multiplication densification                                       T (D)
 DBCSR| Multiplication size stacks                                             3 (U)
 DBCSR| Use memory pool for CPU allocation                                     F (U)
 DBCSR| Number of 3D layers                                               SINGLE (U)
 DBCSR| Use MPI memory allocation                                              F (U)
 DBCSR| Use RMA algorithm                                                      F (U)
 DBCSR| Use Communication thread                                               T (U)
 DBCSR| Communication thread load                                             75 (D)
 DBCSR| MPI: My process id                                                     0
 DBCSR| MPI: Number of processes                                             216
 DBCSR| OMP: Current number of threads                                         4
 DBCSR| OMP: Max number of threads                                             4
 DBCSR| Split modifier for TAS multiplication algorithm                  1.0E+00 (U)


  **** **** ******  **  PROGRAM STARTED AT               2025-03-11 16:13:24.331
 ***** ** ***  *** **   PROGRAM STARTED ON                          i06r02c03s03
 **    ****   ******    PROGRAM STARTED BY                               di38fab
 ***** **    ** ** **   PROGRAM PROCESS ID                               3411235
  **** **  *******  **  PROGRAM STARTED IN /hppfs/scratch/04/di38fab/05_MOL/aUKB
                                           qsEOTmq69kFe5R_nOg/5k_set_final_qzvp/
                                           MAFTAQ/aug-cc-pVDZ

 CP2K| version string:                 CP2K version 2025.1 (Development Version)
 CP2K| source code revision number:                                  git:d2e611a
 CP2K| cp2kflags: omp libint fftw3 libxc parallel scalapack max_contr=4         
 CP2K| is freely available from                            https://www.cp2k.org/
 CP2K| Program compiled at                       Thu 06 Mar 2025 05:09:20 PM CET
 CP2K| Program compiled on                                               login02
 CP2K| Program compiled for                                        Supermuc-foss
 CP2K| Data directory path                  /hppfs/work/pn36zo/di38fab/cp2k/data
 CP2K| Input file name                                                    GW.inp

 GLOBAL| Force Environment number                                              1
 GLOBAL| Basis set file name            /hppfs/scratch/04/di38fab/04_TMD/BASIS_A
 GLOBAL| Potential file name            /hppfs/work/pn36zo/di38fab/cp2k/data/ALL
 GLOBAL| MM Potential file name                                     MM_POTENTIAL
 GLOBAL| Coordinate file name                                      __STD_INPUT__
 GLOBAL| Method name                                                        CP2K
 GLOBAL| Project name                                                       MoS2
 GLOBAL| Run type                                                         ENERGY
 GLOBAL| FFT library                                                       FFTW3
 GLOBAL| Diagonalization library                                       ScaLAPACK
 GLOBAL| DGEMM library                                                      BLAS
 GLOBAL| Orthonormality check for eigenvectors                          DISABLED
 GLOBAL| Matrix multiplication library                                 ScaLAPACK
 GLOBAL| All-to-all communication in single precision                          F
 GLOBAL| FFTs using library dependent lengths                                  F
 GLOBAL| Grid backend                                                       AUTO
 GLOBAL| Global print level                                               MEDIUM
 GLOBAL| MPI I/O enabled                                                       T
 GLOBAL| Total number of message passing processes                           216
 GLOBAL| Number of threads for this process                                    4
 GLOBAL| This output is from process                                           0
 GLOBAL| OpenMP stack size per thread (OMP_STACKSIZE)                    default
 GLOBAL| CPU model name             Intel(R) Xeon(R) Platinum 8174 CPU @ 3.10GHz

 MEMORY| system memory details [Kb]
 MEMORY|                        rank 0           min           max       average
 MEMORY| MemTotal             98436660      98431652      98436868      98436400
 MEMORY| MemFree              83976848      83737768      85165632      84079886
 MEMORY| Buffers                     0             0             0             0
 MEMORY| Cached                2400468       2375460       2425444       2407395
 MEMORY| Slab                  1234216       1028292       1234216       1203922
 MEMORY| SReclaimable           272876        238316        276012        267179
 MEMORY| MemLikelyFree        86650192      86414536      87779408      86754461


 *** Fundamental physical constants (SI units) ***

 *** Literature: B. J. Mohr and B. N. Taylor,
 ***             CODATA recommended values of the fundamental physical
 ***             constants: 2006, Web Version 5.1
 ***             http://physics.nist.gov/constants

 Speed of light in vacuum [m/s]                             2.99792458000000E+08
 Magnetic constant or permeability of vacuum [N/A**2]       1.25663706143592E-06
 Electric constant or permittivity of vacuum [F/m]          8.85418781762039E-12
 Planck constant (h) [J*s]                                  6.62606896000000E-34
 Planck constant (h-bar) [J*s]                              1.05457162825177E-34
 Elementary charge [C]                                      1.60217648700000E-19
 Electron mass [kg]                                         9.10938215000000E-31
 Electron g factor [ ]                                     -2.00231930436220E+00
 Proton mass [kg]                                           1.67262163700000E-27
 Fine-structure constant                                    7.29735253760000E-03
 Rydberg constant [1/m]                                     1.09737315685270E+07
 Avogadro constant [1/mol]                                  6.02214179000000E+23
 Boltzmann constant [J/K]                                   1.38065040000000E-23
 Atomic mass unit [kg]                                      1.66053878200000E-27
 Bohr radius [m]                                            5.29177208590000E-11

 *** Conversion factors ***

 [u] -> [a.u.]                                              1.82288848426455E+03
 [Angstrom] -> [Bohr] = [a.u.]                              1.88972613288564E+00
 [a.u.] = [Bohr] -> [Angstrom]                              5.29177208590000E-01
 [a.u.] -> [s]                                              2.41888432650478E-17
 [a.u.] -> [fs]                                             2.41888432650478E-02
 [a.u.] -> [J]                                              4.35974393937059E-18
 [a.u.] -> [N]                                              8.23872205491840E-08
 [a.u.] -> [K]                                              3.15774647902944E+05
 [a.u.] -> [kJ/mol]                                         2.62549961709828E+03
 [a.u.] -> [kcal/mol]                                       6.27509468713739E+02
 [a.u.] -> [Pa]                                             2.94210107994716E+13
 [a.u.] -> [bar]                                            2.94210107994716E+08
 [a.u.] -> [atm]                                            2.90362800883016E+08
 [a.u.] -> [eV]                                             2.72113838565563E+01
 [a.u.] -> [Hz]                                             6.57968392072181E+15
 [a.u.] -> [1/cm] (wave numbers)                            2.19474631370540E+05
 [a.u./Bohr**2] -> [1/cm]                                   5.14048714338585E+03
 

 CELL_TOP| Volume [angstrom^3]:                                     27000.000000
 CELL_TOP| Vector a [angstrom    30.000     0.000     0.000   |a| =    30.000000
 CELL_TOP| Vector b [angstrom     0.000    30.000     0.000   |b| =    30.000000
 CELL_TOP| Vector c [angstrom     0.000     0.000    30.000   |c| =    30.000000
 CELL_TOP| Angle (b,c), alpha [degree]:                                90.000000
 CELL_TOP| Angle (a,c), beta  [degree]:                                90.000000
 CELL_TOP| Angle (a,b), gamma [degree]:                                90.000000
 CELL_TOP| Numerically orthorhombic:                                         YES
 CELL_TOP| Periodicity                                                      NONE

 GENERATE|  Preliminary Number of Bonds generated:                             0
 GENERATE|  Achieved consistency in connectivity generation.

 CELL| Volume [angstrom^3]:                                         27000.000000
 CELL| Vector a [angstrom]:      30.000     0.000     0.000   |a| =    30.000000
 CELL| Vector b [angstrom]:       0.000    30.000     0.000   |b| =    30.000000
 CELL| Vector c [angstrom]:       0.000     0.000    30.000   |c| =    30.000000
 CELL| Angle (b,c), alpha [degree]:                                    90.000000
 CELL| Angle (a,c), beta  [degree]:                                    90.000000
 CELL| Angle (a,b), gamma [degree]:                                    90.000000
 CELL| Numerically orthorhombic:                                             YES
 CELL| Periodicity                                                          NONE

 CELL_REF| Volume [angstrom^3]:                                     27000.000000
 CELL_REF| Vector a [angstrom    30.000     0.000     0.000   |a| =    30.000000
 CELL_REF| Vector b [angstrom     0.000    30.000     0.000   |b| =    30.000000
 CELL_REF| Vector c [angstrom     0.000     0.000    30.000   |c| =    30.000000
 CELL_REF| Angle (b,c), alpha [degree]:                                90.000000
 CELL_REF| Angle (a,c), beta  [degree]:                                90.000000
 CELL_REF| Angle (a,b), gamma [degree]:                                90.000000
 CELL_REF| Numerically orthorhombic:                                         YES
 CELL_REF| Periodicity                                                      NONE

 *******************************************************************************
 *******************************************************************************
 **                                                                           **
 **     #####                         ##              ##                      **
 **    ##   ##            ##          ##              ##                      **
 **   ##     ##                       ##            ######                    **
 **   ##     ##  ##   ##  ##   #####  ##  ##   ####   ##    #####    #####    **
 **   ##     ##  ##   ##  ##  ##      ## ##   ##      ##   ##   ##  ##   ##   **
 **   ##  ## ##  ##   ##  ##  ##      ####     ###    ##   ######   ######    **
 **    ##  ###   ##   ##  ##  ##      ## ##      ##   ##   ##       ##        **
 **     #######   #####   ##   #####  ##  ##  ####    ##    #####   ##        **
 **           ##                                                    ##        **
 **                                                                           **
 **                                                ... make the atoms dance   **
 **                                                                           **
 **            Copyright (C) by CP2K developers group (2000-2025)             **
 **                      J. Chem. Phys. 152, 194103 (2020)                    **
 **                                                                           **
 *******************************************************************************

 DFT| Spin restricted Kohn-Sham (RKS) calculation                            RKS
 DFT| Multiplicity                                                             1
 DFT| Number of spin states                                                    1
 DFT| Charge                                                                   0
 DFT| Self-interaction correction (SIC)                                       NO
 DFT| Cutoffs: density                                              1.000000E-10
 DFT|          gradient                                             1.000000E-10
 DFT|          tau                                                  1.000000E-10
 DFT|          cutoff_smoothing_range                               0.000000E+00
 DFT| XC density smoothing                                                  NONE
 DFT| XC derivatives                                                          PW

 FUNCTIONAL| PBE:
 FUNCTIONAL| J.P.Perdew, K.Burke, M.Ernzerhof, Phys. Rev. Letter, vol. 77, n 18,
 FUNCTIONAL|  pp. 3865-3868, (1996)sx=0.750sc=1.000{spin unpolarized}           


 QS| Method:                                                                GAPW
 QS| Density plane wave grid type                        NON-SPHERICAL FULLSPACE
 QS| Number of grid levels:                                                    4
 QS| Density cutoff [a.u.]:                                                250.0
 QS| Multi grid cutoff [a.u.]: 1) grid level                               250.0
 QS|                           2) grid level                                83.3
 QS|                           3) grid level                                27.8
 QS|                           4) grid level                                 9.3
 QS| Grid level progression factor:                                          3.0
 QS| Relative density cutoff [a.u.]:                                        50.0
 QS| Interaction thresholds: eps_pgf_orb:                                1.0E-12
 QS|                         eps_filter_matrix:                          0.0E+00
 QS|                         eps_core_charge:                            1.0E-14
 QS|                         eps_rho_gspace:                             1.0E-12
 QS|                         eps_rho_rspace:                             1.0E-12
 QS|                         eps_gvg_rspace:                             1.0E-06
 QS|                         eps_ppl:                                    1.0E-02
 QS|                         eps_ppnl:                                   1.0E-08
 QS| GAPW|      One center basis from orbital basis primitives
 QS| GAPW|                   eps_fit:                                    1.0E-04
 QS| GAPW|                   eps_iso:                                    1.0E-12
 QS| GAPW|                   eps_svd:                                    1.0E-08
 QS| GAPW|                   eps_cpc:                                    1.0E-12
 QS| GAPW|   atom-r-grid: quadrature:                                     GC_LOG
 QS| GAPW|      atom-s-grid:  max l :                                          4
 QS| GAPW|      max_l_rho0 :                                                   2


 ATOMIC KIND INFORMATION

  1. Atomic kind: H                                     Number of atoms:       3

     Orbital Basis Set                                               aug-cc-pVDZ

       Number of orbital shell sets:                                           4
       Number of orbital shells:                                               5
       Number of primitive Cartesian functions:                                7
       Number of Cartesian basis functions:                                    9
       Number of spherical basis functions:                                    9
       Norm type:                                                              2

       Normalised Cartesian orbitals:

                        Set   Shell   Orbital            Exponent    Coefficient

                          1       1    1s                0.029740       0.051041

                          2       1    1s               13.010000       0.096107
                                                         1.962000       0.163020
                                                         0.444600       0.185545
                                                         0.122000       0.073744

                          2       2    2s               13.010000       0.000000
                                                         1.962000       0.000000
                                                         0.444600       0.000000
                                                         0.122000       0.147123

                          3       1    1px               0.141000       0.123158
                          3       1    1py               0.141000       0.123158
                          3       1    1pz               0.141000       0.123158

                          4       1    1px               0.727000       0.956881
                          4       1    1py               0.727000       0.956881
                          4       1    1pz               0.727000       0.956881

     RI Auxiliary Basis Set                                    aug-cc-pVDZ-OPTRI

       Number of orbital shell sets:                                           8
       Number of orbital shells:                                               8
       Number of primitive Cartesian functions:                                8
       Number of Cartesian basis functions:                                   24
       Number of spherical basis functions:                                   22
       Norm type:                                                              2

       Normalised Cartesian orbitals:

                        Set   Shell   Orbital            Exponent    Coefficient

                          1       1    1s                0.081394       0.108606

                          2       1    1px               0.273202       0.281543
                          2       1    1py               0.273202       0.281543
                          2       1    1pz               0.273202       0.281543

                          3       1    1s                0.286540       0.279125

                          4       1    1dx2              0.757634       1.012660
                          4       1    1dxy              0.757634       1.753978
                          4       1    1dxz              0.757634       1.753978
                          4       1    1dy2              0.757634       1.012660
                          4       1    1dyz              0.757634       1.753978
                          4       1    1dz2              0.757634       1.012660

                          5       1    1px               1.251075       1.886011
                          5       1    1py               1.251075       1.886011
                          5       1    1pz               1.251075       1.886011

                          6       1    1s                1.320036       0.877707

                          7       1    1dx2              2.604730       8.790108
                          7       1    1dxy              2.604730      15.224913
                          7       1    1dxz              2.604730      15.224913
                          7       1    1dy2              2.604730       8.790108
                          7       1    1dyz              2.604730      15.224913
                          7       1    1dz2              2.604730       8.790108

                          8       1    1px               2.667161       4.858494
                          8       1    1py               2.667161       4.858494
                          8       1    1pz               2.667161       4.858494

       Atomic covalent radius [Angstrom]:                                  0.320

       Atomic van der Waals radius [Angstrom]:                             1.090

     The atoms of this atomic kind are PAW atoms (GAPW):
       Hard Gaussian function radius:                                      1.200
       Rho0 radius:                                                        1.200
       Maximum GTO radius used for PAW projector construction:            24.566

     GAPW Soft Basis Set                                        aug-cc-pVDZ_soft

       Number of orbital shell sets:                                           4
       Number of orbital shells:                                               5
       Number of primitive Cartesian functions:                                6
       Number of Cartesian basis functions:                                    9
       Number of spherical basis functions:                                    9
       Norm type:                                                              2

       Normalised Cartesian orbitals:

                        Set   Shell   Orbital            Exponent    Coefficient

                          1       1    1s                0.029740       0.051041

                          2       1    1s                1.962000       0.163020
                                                         0.444600       0.185545
                                                         0.122000       0.073744

                          2       2    2s                1.962000       0.000000
                                                         0.444600       0.000000
                                                         0.122000       0.147123

                          3       1    1px               0.141000       0.123158
                          3       1    1py               0.141000       0.123158
                          3       1    1pz               0.141000       0.123158

                          4       1    1px               0.727000       0.956881
                          4       1    1py               0.727000       0.956881
                          4       1    1pz               0.727000       0.956881

     AE Potential information for                                            ALL

       Description:                                       All-electron potential
                                          Krack, Parrinello, PCCP 2, 2105 (2000)

       Gaussian exponent of the core charge distribution:              12.500000
       Electronic configuration (s p d ...):                           1   0   0

  2. Atomic kind: C                                     Number of atoms:       7

     Orbital Basis Set                                               aug-cc-pVDZ

       Number of orbital shell sets:                                           6
       Number of orbital shells:                                               9
       Number of primitive Cartesian functions:                               17
       Number of Cartesian basis functions:                                   25
       Number of spherical basis functions:                                   23
       Norm type:                                                              2

       Normalised Cartesian orbitals:

                        Set   Shell   Orbital            Exponent    Coefficient

                          1       1    1px               0.040410       0.025826
                          1       1    1py               0.040410       0.025826
                          1       1    1pz               0.040410       0.025826

                          2       1    1s                0.046900       0.071827

                          3       1    1dx2              0.151000       0.060203
                          3       1    1dxy              0.151000       0.104275
                          3       1    1dxz              0.151000       0.104275
                          3       1    1dy2              0.151000       0.060203
                          3       1    1dyz              0.151000       0.104275
                          3       1    1dz2              0.151000       0.060203

                          4       1    1px               9.439000       0.898722
                                                         2.002000       0.711071
                                                         0.545600       0.339917
                                                         0.151700       0.063270
                          4       1    1py               9.439000       0.898722
                                                         2.002000       0.711071
                                                         0.545600       0.339917
                                                         0.151700       0.063270
                          4       1    1pz               9.439000       0.898722
                                                         2.002000       0.711071
                                                         0.545600       0.339917
                                                         0.151700       0.063270

                          4       2    2px               9.439000       0.000000
                                                         2.002000       0.000000
                                                         0.545600       0.000000
                                                         0.151700       0.134950
                          4       2    2py               9.439000       0.000000
                                                         2.002000       0.000000
                                                         0.545600       0.000000
                                                         0.151700       0.134950
                          4       2    2pz               9.439000       0.000000
                                                         2.002000       0.000000
                                                         0.545600       0.000000
                                                         0.151700       0.134950

                          5       1    1s             6665.000000       0.363803
                                                      1000.000000       0.675392
                                                       228.000000       1.132301
                                                        64.710000       1.654004
                                                        21.060000       1.924978
                                                         7.495000       1.448149
                                                         2.797000       0.439427
                                                         0.521500       0.006650
                                                         0.159600      -0.000574

                          5       2    2s             6665.000000      -0.076756
                                                      1000.000000      -0.146257
                                                       228.000000      -0.239407
                                                        64.710000      -0.379069
                                                        21.060000      -0.448104
                                                         7.495000      -0.484201
                                                         2.797000      -0.196168
                                                         0.521500       0.238162
                                                         0.159600       0.104468

                          5       3    3s             6665.000000       0.000000
                                                      1000.000000       0.000000
                                                       228.000000       0.000000
                                                        64.710000       0.000000
                                                        21.060000       0.000000
                                                         7.495000       0.000000
                                                         2.797000       0.000000
                                                         0.521500       0.000000
                                                         0.159600       0.179964

                          6       1    1dx2              0.550000       0.578155
                          6       1    1dxy              0.550000       1.001394
                          6       1    1dxz              0.550000       1.001394
                          6       1    1dy2              0.550000       0.578155
                          6       1    1dyz              0.550000       1.001394
                          6       1    1dz2              0.550000       0.578155

     RI Auxiliary Basis Set                                    aug-cc-pVDZ-OPTRI

       Number of orbital shell sets:                                          17
       Number of orbital shells:                                              17
       Number of primitive Cartesian functions:                               17
       Number of Cartesian basis functions:                                   88
       Number of spherical basis functions:                                   69
       Norm type:                                                              2

       Normalised Cartesian orbitals:

                        Set   Shell   Orbital            Exponent    Coefficient

                          1       1    1s                0.073601       0.100710

                          2       1    1px               0.095295       0.075471
                          2       1    1py               0.095295       0.075471
                          2       1    1pz               0.095295       0.075471

                          3       1    1px               0.227892       0.224441
                          3       1    1py               0.227892       0.224441
                          3       1    1pz               0.227892       0.224441

                          4       1    1fx3              0.301896       0.099457
                          4       1    1fx2y             0.301896       0.222392
                          4       1    1fx2z             0.301896       0.222392
                          4       1    1fxy2             0.301896       0.222392
                          4       1    1fxyz             0.301896       0.385194
                          4       1    1fxz2             0.301896       0.222392
                          4       1    1fy3              0.301896       0.099457
                          4       1    1fy2z             0.301896       0.222392
                          4       1    1fyz2             0.301896       0.222392
                          4       1    1fz3              0.301896       0.099457

                          5       1    1dx2              0.333056       0.240334
                          5       1    1dxy              0.333056       0.416270
                          5       1    1dxz              0.333056       0.416270
                          5       1    1dy2              0.333056       0.240334
                          5       1    1dyz              0.333056       0.416270
                          5       1    1dz2              0.333056       0.240334

                          6       1    1px               0.481813       0.572187
                          6       1    1py               0.481813       0.572187
                          6       1    1pz               0.481813       0.572187

                          7       1    1s                0.499106       0.423209

                          8       1    1fx3              0.891821       1.137835
                          8       1    1fx2y             0.891821       2.544276
                          8       1    1fx2z             0.891821       2.544276
                          8       1    1fxy2             0.891821       2.544276
                          8       1    1fxyz             0.891821       4.406816
                          8       1    1fxz2             0.891821       2.544276
                          8       1    1fy3              0.891821       1.137835
                          8       1    1fy2z             0.891821       2.544276
                          8       1    1fyz2             0.891821       2.544276
                          8       1    1fz3              0.891821       1.137835

                          9       1    1gx4              0.973489       1.033584
                          9       1    1gx3y             0.973489       2.734606
                          9       1    1gx3z             0.973489       2.734606
                          9       1    1gx2y2            0.973489       3.530362
                          9       1    1gx2yz            0.973489       6.114766
                          9       1    1gx2z2            0.973489       3.530362
                          9       1    1gxy3             0.973489       2.734606
                          9       1    1gxy2z            0.973489       6.114766
                          9       1    1gxyz2            0.973489       6.114766
                          9       1    1gxz3             0.973489       2.734606
                          9       1    1gy4              0.973489       1.033584
                          9       1    1gy3z             0.973489       2.734606
                          9       1    1gy2z2            0.973489       3.530362
                          9       1    1gyz3             0.973489       2.734606
                          9       1    1gz4              0.973489       1.033584

                         10       1    1px               1.018656       1.458729
                         10       1    1py               1.018656       1.458729
                         10       1    1pz               1.018656       1.458729

                         11       1    1dx2              1.381969       2.899222
                         11       1    1dxy              1.381969       5.021600
                         11       1    1dxz              1.381969       5.021600
                         11       1    1dy2              1.381969       2.899222
                         11       1    1dyz              1.381969       5.021600
                         11       1    1dz2              1.381969       2.899222

                         12       1    1s                1.807741       1.111123

                         13       1    1px               2.153659       3.718872
                         13       1    1py               2.153659       3.718872
                         13       1    1pz               2.153659       3.718872

                         14       1    1fx3              2.652750      13.221209
                         14       1    1fx2y             2.652750      29.563522
                         14       1    1fx2z             2.652750      29.563522
                         14       1    1fxy2             2.652750      29.563522
                         14       1    1fxyz             2.652750      51.205523
                         14       1    1fxz2             2.652750      29.563522
                         14       1    1fy3              2.652750      13.221209
                         14       1    1fy2z             2.652750      29.563522
                         14       1    1fyz2             2.652750      29.563522
                         14       1    1fz3              2.652750      13.221209

                         15       1    1dx2              3.347320      13.634199
                         15       1    1dxy              3.347320      23.615125
                         15       1    1dxz              3.347320      23.615125
                         15       1    1dy2              3.347320      13.634199
                         15       1    1dyz              3.347320      23.615125
                         15       1    1dz2              3.347320      13.634199

                         16       1    1s                6.547563       2.917225

                         17       1    1dx2              8.107669      64.117632
                         17       1    1dxy              8.107669     111.054996
                         17       1    1dxz              8.107669     111.054996
                         17       1    1dy2              8.107669      64.117632
                         17       1    1dyz              8.107669     111.054996
                         17       1    1dz2              8.107669      64.117632

       Atomic covalent radius [Angstrom]:                                  0.770

       Atomic van der Waals radius [Angstrom]:                             1.700

     The atoms of this atomic kind are PAW atoms (GAPW):
       Hard Gaussian function radius:                                      1.512
       Rho0 radius:                                                        1.512
       Maximum GTO radius used for PAW projector construction:            24.566

     GAPW Soft Basis Set                                        aug-cc-pVDZ_soft

       Number of orbital shell sets:                                           6
       Number of orbital shells:                                               9
       Number of primitive Cartesian functions:                               10
       Number of Cartesian basis functions:                                   25
       Number of spherical basis functions:                                   23
       Norm type:                                                              2

       Normalised Cartesian orbitals:

                        Set   Shell   Orbital            Exponent    Coefficient

                          1       1    1px               0.040410       0.025826
                          1       1    1py               0.040410       0.025826
                          1       1    1pz               0.040410       0.025826

                          2       1    1s                0.046900       0.071827

                          3       1    1dx2              0.151000       0.060203
                          3       1    1dxy              0.151000       0.104275
                          3       1    1dxz              0.151000       0.104275
                          3       1    1dy2              0.151000       0.060203
                          3       1    1dyz              0.151000       0.104275
                          3       1    1dz2              0.151000       0.060203

                          4       1    1px               2.002000       0.711071
                                                         0.545600       0.339917
                                                         0.151700       0.063270
                          4       1    1py               2.002000       0.711071
                                                         0.545600       0.339917
                                                         0.151700       0.063270
                          4       1    1pz               2.002000       0.711071
                                                         0.545600       0.339917
                                                         0.151700       0.063270

                          4       2    2px               2.002000       0.000000
                                                         0.545600       0.000000
                                                         0.151700       0.134950
                          4       2    2py               2.002000       0.000000
                                                         0.545600       0.000000
                                                         0.151700       0.134950
                          4       2    2pz               2.002000       0.000000
                                                         0.545600       0.000000
                                                         0.151700       0.134950

                          5       1    1s                2.797000       0.439427
                                                         0.521500       0.006650
                                                         0.159600      -0.000574

                          5       2    2s                2.797000      -0.196168
                                                         0.521500       0.238162
                                                         0.159600       0.104468

                          5       3    3s                2.797000       0.000000
                                                         0.521500       0.000000
                                                         0.159600       0.179964

                          6       1    1dx2              0.550000       0.578155
                          6       1    1dxy              0.550000       1.001394
                          6       1    1dxz              0.550000       1.001394
                          6       1    1dy2              0.550000       0.578155
                          6       1    1dyz              0.550000       1.001394
                          6       1    1dz2              0.550000       0.578155

     AE Potential information for                                            ALL

       Description:                                       All-electron potential
                                          Krack, Parrinello, PCCP 2, 2105 (2000)

       Gaussian exponent of the core charge distribution:               4.109048
       Electronic configuration (s p d ...):                           4   2   0

  3. Atomic kind: Cl                                    Number of atoms:       1

     Orbital Basis Set                                               aug-cc-pVDZ

       Number of orbital shell sets:                                           6
       Number of orbital shells:                                              11
       Number of primitive Cartesian functions:                               24
       Number of Cartesian basis functions:                                   29
       Number of spherical basis functions:                                   27
       Norm type:                                                              2

       Normalised Cartesian orbitals:

                        Set   Shell   Orbital            Exponent    Coefficient

                          1       1    1px               0.046600       0.030862
                          1       1    1py               0.046600       0.030862
                          1       1    1pz               0.046600       0.030862

                          2       1    1s                0.060800       0.087265

                          3       1    1px             417.600000      14.153418
                                                        98.330000      17.580960
                                                        31.040000      17.195583
                                                        11.190000      11.299250
                                                         4.249000       3.974503
                                                         1.624000       0.396255
                                                         0.532200       0.001177
                                                         0.162000       0.000276
                          3       1    1py             417.600000      14.153418
                                                        98.330000      17.580960
                                                        31.040000      17.195583
                                                        11.190000      11.299250
                                                         4.249000       3.974503
                                                         1.624000       0.396255
                                                         0.532200       0.001177
                                                         0.162000       0.000276
                          3       1    1pz             417.600000      14.153418
                                                        98.330000      17.580960
                                                        31.040000      17.195583
                                                        11.190000      11.299250
                                                         4.249000       3.974503
                                                         1.624000       0.396255
                                                         0.532200       0.001177
                                                         0.162000       0.000276

                          3       2    2px             417.600000      -3.863263
                                                        98.330000      -4.757734
                                                        31.040000      -4.909184
                                                        11.190000      -3.239052
                                                         4.249000      -1.332815
                                                         1.624000       0.233779
                                                         0.532200       0.375444
                                                         0.162000       0.070799
                          3       2    2py             417.600000      -3.863263
                                                        98.330000      -4.757734
                                                        31.040000      -4.909184
                                                        11.190000      -3.239052
                                                         4.249000      -1.332815
                                                         1.624000       0.233779
                                                         0.532200       0.375444
                                                         0.162000       0.070799
                          3       2    2pz             417.600000      -3.863263
                                                        98.330000      -4.757734
                                                        31.040000      -4.909184
                                                        11.190000      -3.239052
                                                         4.249000      -1.332815
                                                         1.624000       0.233779
                                                         0.532200       0.375444
                                                         0.162000       0.070799

                          3       3    3px             417.600000       0.000000
                                                        98.330000       0.000000
                                                        31.040000       0.000000
                                                        11.190000       0.000000
                                                         4.249000       0.000000
                                                         1.624000       0.000000
                                                         0.532200       0.000000
                                                         0.162000       0.146499
                          3       3    3py             417.600000       0.000000
                                                        98.330000       0.000000
                                                        31.040000       0.000000
                                                        11.190000       0.000000
                                                         4.249000       0.000000
                                                         1.624000       0.000000
                                                         0.532200       0.000000
                                                         0.162000       0.146499
                          3       3    3pz             417.600000       0.000000
                                                        98.330000       0.000000
                                                        31.040000       0.000000
                                                        11.190000       0.000000
                                                         4.249000       0.000000
                                                         1.624000       0.000000
                                                         0.532200       0.000000
                                                         0.162000       0.146499

                          4       1    1s           127900.000000       1.162400
                                                     19170.000000       2.172396
                                                      4363.000000       3.714419
                                                      1236.000000       5.840979
                                                       403.600000       8.081829
                                                       145.700000       8.946868
                                                        56.810000       6.221912
                                                        23.230000       1.788807
                                                         6.644000       0.056490
                                                         2.575000      -0.004850
                                                         0.537100       0.000416
                                                         0.193800      -0.000083

                          4       2    2s           127900.000000      -0.327252
                                                     19170.000000      -0.605913
                                                      4363.000000      -1.057948
                                                      1236.000000      -1.657076
                                                       403.600000      -2.476676
                                                       145.700000      -2.973453
                                                        56.810000      -2.970096
                                                        23.230000      -0.982730
                                                         6.644000       1.502545
                                                         2.575000       0.884786
                                                         0.537100       0.018849
                                                         0.193800      -0.001922

                          4       3    3s           127900.000000       0.098807
                                                     19170.000000       0.183803
                                                      4363.000000       0.318953
                                                      1236.000000       0.504952
                                                       403.600000       0.749180
                                                       145.700000       0.925416
                                                        56.810000       0.928426
                                                        23.230000       0.347094
                                                         6.644000      -0.646837
                                                         2.575000      -0.592210
                                                         0.537100       0.285489
                                                         0.193800       0.117069

                          4       4    4s           127900.000000       0.000000
                                                     19170.000000       0.000000
                                                      4363.000000       0.000000
                                                      1236.000000       0.000000
                                                       403.600000       0.000000
                                                       145.700000       0.000000
                                                        56.810000       0.000000
                                                        23.230000       0.000000
                                                         6.644000       0.000000
                                                         2.575000       0.000000
                                                         0.537100       0.000000
                                                         0.193800       0.208173

                          5       1    1dx2              0.196000       0.095029
                          5       1    1dxy              0.196000       0.164596
                          5       1    1dxz              0.196000       0.164596
                          5       1    1dy2              0.196000       0.095029
                          5       1    1dyz              0.196000       0.164596
                          5       1    1dz2              0.196000       0.095029

                          6       1    1dx2              0.600000       0.673247
                          6       1    1dxy              0.600000       1.166097
                          6       1    1dxz              0.600000       1.166097
                          6       1    1dy2              0.600000       0.673247
                          6       1    1dyz              0.600000       1.166097
                          6       1    1dz2              0.600000       0.673247

     RI Auxiliary Basis Set                                    aug-cc-pVDZ-OPTRI

       Number of orbital shell sets:                                          18
       Number of orbital shells:                                              18
       Number of primitive Cartesian functions:                               18
       Number of Cartesian basis functions:                                   89
       Number of spherical basis functions:                                   70
       Norm type:                                                              2

       Normalised Cartesian orbitals:

                        Set   Shell   Orbital            Exponent    Coefficient

                          1       1    1px               0.081064       0.061656
                          1       1    1py               0.081064       0.061656
                          1       1    1pz               0.081064       0.061656

                          2       1    1s                0.110719       0.136797

                          3       1    1px               0.283969       0.295480
                          3       1    1py               0.283969       0.295480
                          3       1    1pz               0.283969       0.295480

                          4       1    1s                0.308655       0.295131

                          5       1    1dx2              0.339721       0.248813
                          5       1    1dxy              0.339721       0.430957
                          5       1    1dxz              0.339721       0.430957
                          5       1    1dy2              0.339721       0.248813
                          5       1    1dyz              0.339721       0.430957
                          5       1    1dz2              0.339721       0.248813

                          6       1    1fx3              0.388498       0.175420
                          6       1    1fx2y             0.388498       0.392251
                          6       1    1fx2z             0.388498       0.392251
                          6       1    1fxy2             0.388498       0.392251
                          6       1    1fxyz             0.388498       0.679399
                          6       1    1fxz2             0.388498       0.392251
                          6       1    1fy3              0.388498       0.175420
                          6       1    1fy2z             0.388498       0.392251
                          6       1    1fyz2             0.388498       0.392251
                          6       1    1fz3              0.388498       0.175420

                          7       1    1gx4              0.912623       0.865440
                          7       1    1gx3y             0.912623       2.289738
                          7       1    1gx3z             0.912623       2.289738
                          7       1    1gx2y2            0.912623       2.956039
                          7       1    1gx2yz            0.912623       5.120010
                          7       1    1gx2z2            0.912623       2.956039
                          7       1    1gxy3             0.912623       2.289738
                          7       1    1gxy2z            0.912623       5.120010
                          7       1    1gxyz2            0.912623       5.120010
                          7       1    1gxz3             0.912623       2.289738
                          7       1    1gy4              0.912623       0.865440
                          7       1    1gy3z             0.912623       2.289738
                          7       1    1gy2z2            0.912623       2.956039
                          7       1    1gyz3             0.912623       2.289738
                          7       1    1gz4              0.912623       0.865440

                          8       1    1px               0.933893       1.308614
                          8       1    1py               0.933893       1.308614
                          8       1    1pz               0.933893       1.308614

                          9       1    1s                0.994894       0.709974

                         10       1    1fx3              1.019373       1.537107
                         10       1    1fx2y             1.019373       3.437075
                         10       1    1fx2z             1.019373       3.437075
                         10       1    1fxy2             1.019373       3.437075
                         10       1    1fxyz             1.019373       5.953188
                         10       1    1fxz2             1.019373       3.437075
                         10       1    1fy3              1.019373       1.537107
                         10       1    1fy2z             1.019373       3.437075
                         10       1    1fyz2             1.019373       3.437075
                         10       1    1fz3              1.019373       1.537107

                         11       1    1dx2              1.138737       2.066096
                         11       1    1dxy              1.138737       3.578583
                         11       1    1dxz              1.138737       3.578583
                         11       1    1dy2              1.138737       2.066096
                         11       1    1dyz              1.138737       3.578583
                         11       1    1dz2              1.138737       2.066096

                         12       1    1px               3.071309       5.795548
                         12       1    1py               3.071309       5.795548
                         12       1    1pz               3.071309       5.795548

                         13       1    1s                3.206864       1.707932

                         14       1    1fx3              6.510437      99.672939
                         14       1    1fx2y             6.510437     222.875468
                         14       1    1fx2z             6.510437     222.875468
                         14       1    1fxy2             6.510437     222.875468
                         14       1    1fxyz             6.510437     386.031635
                         14       1    1fxz2             6.510437     222.875468
                         14       1    1fy3              6.510437      99.672939
                         14       1    1fy2z             6.510437     222.875468
                         14       1    1fyz2             6.510437     222.875468
                         14       1    1fz3              6.510437      99.672939

                         15       1    1px              10.100670      25.667160
                         15       1    1py              10.100670      25.667160
                         15       1    1pz              10.100670      25.667160

                         16       1    1s               10.336759       4.108643

                         17       1    1dx2             11.616992     120.316008
                         17       1    1dxy             11.616992     208.393439
                         17       1    1dxz             11.616992     208.393439
                         17       1    1dy2             11.616992     120.316008
                         17       1    1dyz             11.616992     208.393439
                         17       1    1dz2             11.616992     120.316008

                         18       1    1dx2             18.708830     277.007199
                         18       1    1dxy             18.708830     479.790543
                         18       1    1dxz             18.708830     479.790543
                         18       1    1dy2             18.708830     277.007199
                         18       1    1dyz             18.708830     479.790543
                         18       1    1dz2             18.708830     277.007199

       Atomic covalent radius [Angstrom]:                                  0.990

       Atomic van der Waals radius [Angstrom]:                             1.750

     The atoms of this atomic kind are PAW atoms (GAPW):
       Hard Gaussian function radius:                                      1.512
       Rho0 radius:                                                        1.512
       Maximum GTO radius used for PAW projector construction:            24.566

     GAPW Soft Basis Set                                        aug-cc-pVDZ_soft

       Number of orbital shell sets:                                           6
       Number of orbital shells:                                              11
       Number of primitive Cartesian functions:                               10
       Number of Cartesian basis functions:                                   29
       Number of spherical basis functions:                                   27
       Norm type:                                                              2

       Normalised Cartesian orbitals:

                        Set   Shell   Orbital            Exponent    Coefficient

                          1       1    1px               0.046600       0.030862
                          1       1    1py               0.046600       0.030862
                          1       1    1pz               0.046600       0.030862

                          2       1    1s                0.060800       0.087265

                          3       1    1px               1.624000       0.396255
                                                         0.532200       0.001177
                                                         0.162000       0.000276
                          3       1    1py               1.624000       0.396255
                                                         0.532200       0.001177
                                                         0.162000       0.000276
                          3       1    1pz               1.624000       0.396255
                                                         0.532200       0.001177
                                                         0.162000       0.000276

                          3       2    2px               1.624000       0.233779
                                                         0.532200       0.375444
                                                         0.162000       0.070799
                          3       2    2py               1.624000       0.233779
                                                         0.532200       0.375444
                                                         0.162000       0.070799
                          3       2    2pz               1.624000       0.233779
                                                         0.532200       0.375444
                                                         0.162000       0.070799

                          3       3    3px               1.624000       0.000000
                                                         0.532200       0.000000
                                                         0.162000       0.146499
                          3       3    3py               1.624000       0.000000
                                                         0.532200       0.000000
                                                         0.162000       0.146499
                          3       3    3pz               1.624000       0.000000
                                                         0.532200       0.000000
                                                         0.162000       0.146499

                          4       1    1s                2.575000      -0.004850
                                                         0.537100       0.000416
                                                         0.193800      -0.000083

                          4       2    2s                2.575000       0.884786
                                                         0.537100       0.018849
                                                         0.193800      -0.001922

                          4       3    3s                2.575000      -0.592210
                                                         0.537100       0.285489
                                                         0.193800       0.117069

                          4       4    4s                2.575000       0.000000
                                                         0.537100       0.000000
                                                         0.193800       0.208173

                          5       1    1dx2              0.196000       0.095029
                          5       1    1dxy              0.196000       0.164596
                          5       1    1dxz              0.196000       0.164596
                          5       1    1dy2              0.196000       0.095029
                          5       1    1dyz              0.196000       0.164596
                          5       1    1dz2              0.196000       0.095029

                          6       1    1dx2              0.600000       0.673247
                          6       1    1dxy              0.600000       1.166097
                          6       1    1dxz              0.600000       1.166097
                          6       1    1dy2              0.600000       0.673247
                          6       1    1dyz              0.600000       1.166097
                          6       1    1dz2              0.600000       0.673247

     AE Potential information for                                            ALL

       Description:                                       All-electron potential
                                          Krack, Parrinello, PCCP 2, 2105 (2000)

       Gaussian exponent of the core charge distribution:               2.974420
       Electronic configuration (s p d ...):                           6  11   0

  4. Atomic kind: F                                     Number of atoms:       3

     Orbital Basis Set                                               aug-cc-pVDZ

       Number of orbital shell sets:                                           6
       Number of orbital shells:                                               9
       Number of primitive Cartesian functions:                               17
       Number of Cartesian basis functions:                                   25
       Number of spherical basis functions:                                   23
       Norm type:                                                              2

       Normalised Cartesian orbitals:

                        Set   Shell   Orbital            Exponent    Coefficient

                          1       1    1px               0.085020       0.065440
                          1       1    1py               0.085020       0.065440
                          1       1    1pz               0.085020       0.065440

                          2       1    1s                0.098630       0.125434

                          3       1    1px              22.670000       3.164375
                                                         4.977000       2.497712
                                                         1.347000       1.051861
                                                         0.347100       0.173975
                          3       1    1py              22.670000       3.164375
                                                         4.977000       2.497712
                                                         1.347000       1.051861
                                                         0.347100       0.173975
                          3       1    1pz              22.670000       3.164375
                                                         4.977000       2.497712
                                                         1.347000       1.051861
                                                         0.347100       0.173975

                          3       2    2px              22.670000       0.000000
                                                         4.977000       0.000000
                                                         1.347000       0.000000
                                                         0.347100       0.379759
                          3       2    2py              22.670000       0.000000
                                                         4.977000       0.000000
                                                         1.347000       0.000000
                                                         0.347100       0.379759
                          3       2    2pz              22.670000       0.000000
                                                         4.977000       0.000000
                                                         1.347000       0.000000
                                                         0.347100       0.379759

                          4       1    1s            14710.000000       0.686365
                                                      2207.000000       1.274353
                                                       502.800000       2.139126
                                                       142.600000       3.130553
                                                        46.470000       3.638230
                                                        16.700000       2.641476
                                                         6.356000       0.755357
                                                         1.316000       0.013427
                                                         0.389700      -0.000820

                          4       2    2s            14710.000000      -0.157074
                                                      2207.000000      -0.300172
                                                       502.800000      -0.491514
                                                       142.600000      -0.784991
                                                        46.470000      -0.934756
                                                        16.700000      -1.005483
                                                         6.356000      -0.320466
                                                         1.316000       0.492853
                                                         0.389700       0.199941

                          4       3    3s            14710.000000       0.000000
                                                      2207.000000       0.000000
                                                       502.800000       0.000000
                                                       142.600000       0.000000
                                                        46.470000       0.000000
                                                        16.700000       0.000000
                                                         6.356000       0.000000
                                                         1.316000       0.000000
                                                         0.389700       0.351526

                          5       1    1dx2              0.464000       0.429354
                          5       1    1dxy              0.464000       0.743664
                          5       1    1dxz              0.464000       0.743664
                          5       1    1dy2              0.464000       0.429354
                          5       1    1dyz              0.464000       0.743664
                          5       1    1dz2              0.464000       0.429354

                          6       1    1dx2              1.640000       3.911886
                          6       1    1dxy              1.640000       6.775585
                          6       1    1dxz              1.640000       6.775585
                          6       1    1dy2              1.640000       3.911886
                          6       1    1dyz              1.640000       6.775585
                          6       1    1dz2              1.640000       3.911886

     RI Auxiliary Basis Set                                    aug-cc-pVDZ-OPTRI

       Number of orbital shell sets:                                          17
       Number of orbital shells:                                              17
       Number of primitive Cartesian functions:                               17
       Number of Cartesian basis functions:                                   88
       Number of spherical basis functions:                                   69
       Norm type:                                                              2

       Normalised Cartesian orbitals:

                        Set   Shell   Orbital            Exponent    Coefficient

                          1       1    1px               0.126928       0.107991
                          1       1    1py               0.126928       0.107991
                          1       1    1pz               0.126928       0.107991

                          2       1    1s                0.146513       0.168779

                          3       1    1px               0.514046       0.620430
                          3       1    1py               0.514046       0.620430
                          3       1    1pz               0.514046       0.620430

                          4       1    1fx3              0.639079       0.537591
                          4       1    1fx2y             0.639079       1.202091
                          4       1    1fx2z             0.639079       1.202091
                          4       1    1fxy2             0.639079       1.202091
                          4       1    1fxyz             0.639079       2.082082
                          4       1    1fxz2             0.639079       1.202091
                          4       1    1fy3              0.639079       0.537591
                          4       1    1fy2z             0.639079       1.202091
                          4       1    1fyz2             0.639079       1.202091
                          4       1    1fz3              0.639079       0.537591

                          5       1    1px               1.085258       1.578906
                          5       1    1py               1.085258       1.578906
                          5       1    1pz               1.085258       1.578906

                          6       1    1dx2              1.095438       1.930581
                          6       1    1dxy              1.095438       3.343865
                          6       1    1dxz              1.095438       3.343865
                          6       1    1dy2              1.095438       1.930581
                          6       1    1dyz              1.095438       3.343865
                          6       1    1dz2              1.095438       1.930581

                          7       1    1s                1.236326       0.835622

                          8       1    1fx3              1.980057       6.846668
                          8       1    1fx2y             1.980057      15.309615
                          8       1    1fx2z             1.980057      15.309615
                          8       1    1fxy2             1.980057      15.309615
                          8       1    1fxyz             1.980057      26.517030
                          8       1    1fxz2             1.980057      15.309615
                          8       1    1fy3              1.980057       6.846668
                          8       1    1fy2z             1.980057      15.309615
                          8       1    1fyz2             1.980057      15.309615
                          8       1    1fz3              1.980057       6.846668

                          9       1    1gx4              2.274113      10.657824
                          9       1    1gx3y             2.274113      28.197951
                          9       1    1gx3z             2.274113      28.197951
                          9       1    1gx2y2            2.274113      36.403399
                          9       1    1gx2yz            2.274113      63.052536
                          9       1    1gx2z2            2.274113      36.403399
                          9       1    1gxy3             2.274113      28.197951
                          9       1    1gxy2z            2.274113      63.052536
                          9       1    1gxyz2            2.274113      63.052536
                          9       1    1gxz3             2.274113      28.197951
                          9       1    1gy4              2.274113      10.657824
                          9       1    1gy3z             2.274113      28.197951
                          9       1    1gy2z2            2.274113      36.403399
                          9       1    1gyz3             2.274113      28.197951
                          9       1    1gz4              2.274113      10.657824

                         10       1    1px               2.291208       4.018100
                         10       1    1py               2.291208       4.018100
                         10       1    1pz               2.291208       4.018100

                         11       1    1dx2              3.336915      13.560118
                         11       1    1dxy              3.336915      23.486813
                         11       1    1dxz              3.336915      23.486813
                         11       1    1dy2              3.336915      13.560118
                         11       1    1dyz              3.336915      23.486813
                         11       1    1dz2              3.336915      13.560118

                         12       1    1s                4.226853       2.100985

                         13       1    1px               4.837221      10.225511
                         13       1    1py               4.837221      10.225511
                         13       1    1pz               4.837221      10.225511

                         14       1    1fx3              6.162877      88.098259
                         14       1    1fx2y             6.162877     196.993695
                         14       1    1fx2z             6.162877     196.993695
                         14       1    1fxy2             6.162877     196.993695
                         14       1    1fxyz             6.162877     341.203089
[...]
 grid_collocate_task_list            88  7.0    4.812    7.292    4.812    7.292
 gspace_mixing                       86  5.0    0.187    0.200    6.828    6.829
 mp_sync                            893  9.6    4.248    6.366    4.248    6.366
 transfer_rs2pw_250                 177 10.0    1.284    1.503    4.646    6.275
 calculate_vxc_atom                  88  8.0    0.087    0.717    6.157    6.158
 rs_gather_matrices                  88 10.0    0.009    0.015    5.458    5.759
 grid_integrate_task_list            88 10.0    0.293    5.679    0.293    5.679
 prepare_gapw_den                    88  8.0    0.002    0.003    5.566    5.635
 calc_pair_dist_radii                 1 10.0    1.701    1.746    5.284    5.470
 gaVxcgb_GC                         522  9.0    0.065    5.114    0.065    5.114
 broyden_mixing                      86  6.0    4.724    4.867    4.909    5.004
 qs_scf_new_mos                      87  5.0    0.001    0.001    4.891    4.902
 integrate_vhg0_rspace               88  8.0    0.132    0.172    4.322    4.345
 transfer_pw2rs_250                 177 11.0    1.317    1.420    3.845    3.947
 put_rho0_on_grid                    88  9.0    0.208    0.269    3.873    3.942
 eigensolver_symm                    88  6.0    0.003    0.003    3.913    3.923
 integrate_four_center_main          88 10.0    0.029    0.075    3.553    3.877
 integrate_four_center_bin        15059 11.0    3.524    3.842    3.524    3.842
 mp2_ri_gpw_compute_in                1  5.0    0.002    0.002    3.733    3.734
 mp2_ri_gpw_compute_in_loop           1  6.0    0.000    0.000    3.694    3.694
 contract_B_L                         4  7.0    0.008    0.011    3.336    3.478
 rpa_num_int_RPA_matrix_operati     100  7.0    0.001    0.003    3.428    3.429
 dbt_total                            8  8.0    0.000    0.000    2.932    2.932
 calc_mat_Q                         100  8.0    0.000    0.001    2.832    2.859
 contract_S_to_Q                    100  9.0    0.001    0.001    2.815    2.842
 dbt_contract                         4  9.0    0.001    0.005    2.566    2.720
 mp_waitall_1                     91918 12.0    2.144    2.678    2.144    2.678
 transfer_rs2pw_90                   88  9.0    0.244    0.305    1.501    2.356
 mp_sum_dm                         4844  7.7    2.206    2.349    2.206    2.349
 create_qs_kind_set                   1  2.0    0.000    0.000    2.210    2.210
 read_qs_kind                         6  3.0    1.229    1.277    2.210    2.210
 cp_fm_syrk                           2  8.5    2.137    2.185    2.137    2.185
 dbt_tas_multiply                     8 11.5    0.000    0.000    2.161    2.161
 dbt_tas_total                        8 12.5    0.001    0.005    2.160    2.160
 create_B                             1  8.0    0.000    0.000    2.038    2.060
 transfer_pw2rs_30                   88 12.0    0.807    0.876    1.837    1.959
 transfer_rs2pw_30                   88  9.0    0.832    0.870    1.893    1.946
 xc_functional_eval                1131 10.9    0.001    0.004    1.254    1.939
 pbe_lda_eval                      1131 11.9    1.253    1.936    1.253    1.936
 mp_waitall_2                        48 15.8    0.086    1.779    0.086    1.779
 dbt_tas_replicate                    8 13.5    0.045    0.066    0.126    1.692
 dbt_tas_communicate_buffer          16 16.0    0.002    0.002    0.045    1.609
 dbt_tas_replicate_communicate_       8 14.5    0.000    0.000    0.040    1.605
 calculate_rho_atom                 528  9.0    0.731    1.491    0.731    1.491
 create_A                             1  8.0    0.002    0.004    1.462    1.486
 mp_sendrecv_dv                   37840 10.0    1.414    1.481    1.414    1.481
 pw_scatter_p                       962 12.1    1.253    1.435    1.253    1.435
 qs_energies_init_hamiltonians        1  3.0    0.000    0.000    1.254    1.254
 build_core_hamiltonian_matrix        1  4.0    0.000    0.000    1.241    1.241
 overlap_condnum                      1  5.0    0.000    0.001    1.237    1.239
 pw_gather_p                        877 11.8    0.968    1.186    0.968    1.186
 mp_sum_dv                        22594 10.7    1.048    1.179    1.048    1.179
 cp2k_distribution_to_z_slices       88  9.0    0.405    0.446    0.947    1.158
 arnoldi_conjugate_gradient           5  6.0    0.026    0.031    1.105    1.105
 transfer_pw2rs_90                   88 12.0    0.238    0.281    1.009    1.102
 rs_grid_zero                       442 11.2    1.024    1.070    1.024    1.070
 mp_isendrecv_dv                  75680 12.0    0.526    1.010    0.526    1.010
 parser_read_line                260117  4.0    0.089    0.096    0.981    1.009
 cp_fm_to_fm_submat_general         112 10.1    0.560    0.998    0.560    0.998
 fft_wrap_pw1pw2_90                 176 10.5    0.027    0.055    0.886    0.995
 cp_fm_cholesky_invert              101  8.0    0.902    0.969    0.902    0.969
 pw_derive                          786 11.3    0.859    0.923    0.859    0.923
 parser_read_line_low               290  5.0    0.089    0.382    0.892    0.921
 broadcast_input_information        290  6.0    0.214    0.245    0.803    0.873
 mp_cart_create                     794  9.6    0.693    0.849    0.695    0.850
 dbt_pgrid_create_expert             84 10.8    0.000    0.000    0.657    0.812
 pw_copy                           1315 10.6    0.661    0.725    0.661    0.725
 calculate_dm_sparse                 87  6.0    0.001    0.001    0.693    0.716
 cp_dbcsr_plus_fm_fm_t               87  7.0    0.001    0.002    0.692    0.715
 compute_vec_Sigma_x_minus_vxc_       1  4.0    0.000    0.000    0.709    0.709
 dbcsr_sym_matrix_vector_mult      3775  7.0    0.060    0.065    0.606    0.678
 mp_sum_l                          1068  6.4    0.544    0.666    0.544    0.666
 fm_general_add_bse                   5 10.2    0.000    0.000    0.604    0.666
 pw_poisson_rebuild                  88  9.0    0.000    0.000    0.606    0.631
 ps_wavelet_create                    1 10.0    0.000    0.000    0.606    0.630
 RS_z_slice_distribution              1 11.0    0.498    0.590    0.606    0.630
 integrate_four_center_load          88 10.0    0.000    0.001    0.499    0.622
 hfx_load_balance                     1 11.0    0.000    0.000    0.499    0.621
 transfer_pw2rs_10                   88 12.0    0.211    0.247    0.578    0.608
 pw_copy_to_array                   877 11.8    0.370    0.593    0.370    0.593
 hfx_load_balance_range               1 12.0    0.000    0.000    0.464    0.586
 transfer_rs2pw_10                   88  9.0    0.213    0.226    0.565    0.576
 cp_fm_cholesky_decompose           102  9.0    0.568    0.574    0.568    0.574
 integrate_four_center_getP          88 10.0    0.043    0.047    0.549    0.558
 compute_Erpa_by_freq_int           100  8.0    0.002    0.002    0.552    0.553
 Vh_1c_gg_integrals                  88  8.0    0.016    0.318    0.349    0.552
 mp2_eri_3c_integrate                 1  7.0    0.014    0.024    0.240    0.539
 pw_poisson_set                      89  8.9    0.002    0.003    0.524    0.531
 dbcsr_complete_redistribute        300  8.4    0.023    0.028    0.517    0.530
 integrate_set_3c                 21884  8.0    0.195    0.462    0.226    0.525
 integrate_four_center_dist_KS       88 10.0    0.037    0.044    0.506    0.507
 mp_isend_dm3                      3180 11.5    0.217    0.486    0.217    0.486
 cp_fm_uplo_to_full                 103  8.0    0.264    0.483    0.264    0.483
 calculate_rho_atom_coeff            88  6.0    0.026    0.052    0.478    0.479
 dbcsr_multiply_generic             140  8.1    0.007    0.008    0.434    0.457
 mp_irecv_dm3                      3180 11.5    0.226    0.443    0.226    0.443
 dbt_copy                            12 10.0    0.000    0.001    0.135    0.431
 pw_integral_ab_c1d_c1d_gs           88  9.0    0.286    0.289    0.391    0.424
 mp_bcast_i_src                    1160  7.0    0.293    0.417    0.293    0.417
 dbt_tas_dbm                          8 13.5    0.000    0.000    0.407    0.407
 copy_dbcsr_to_fm                   122  6.5    0.002    0.003    0.381    0.392
 mp_max_i                           686  3.0    0.178    0.387    0.178    0.387
 dbt_reshape                          8 11.5    0.024    0.028    0.089    0.381
 dbt_tas_mm_1N                        8 14.5    0.000    0.000    0.339    0.377
 dbm_multiply                         8 15.5    0.339    0.377    0.339    0.377
 init_scf_run                         1  3.0    0.000    0.000    0.372    0.373
 pw_axpy                            875  9.3    0.315    0.364    0.315    0.364
 fft_wrap_pw1pw2_30                 176 10.5    0.005    0.006    0.349    0.363
 mp_bcast_dv                       3868  9.0    0.161    0.361    0.161    0.361
 mp_alltoall_z11v                   352 13.5    0.346    0.360    0.346    0.360
 dbt_remap                            8 10.0    0.002    0.002    0.360    0.360
 pw_copy_from_array                 962 12.1    0.286    0.359    0.286    0.359
 dbcsr_add_d                       5735  7.0    0.005    0.006    0.053    0.355
 dbcsr_add_anytype                 5735  8.0    0.007    0.044    0.047    0.349
 copy_fm_to_dbcsr                   178  8.1    0.001    0.001    0.335    0.348
 dbt_communicate_buffer               8 12.5    0.002    0.002    0.054    0.344
 mp_bcast_am_src                    290  7.0    0.244    0.282    0.279    0.332
 mp2_main_alloc_hfx                   1  4.0    0.144    0.327    0.144    0.327
 cp_fm_redistribute_start            93  8.0    0.164    0.227    0.246    0.325
 dbt_nd_mp_comm                       8 11.0    0.000    0.000    0.301    0.322
 scf_env_initial_rho_setup            1  4.0    0.000    0.000    0.316    0.316
 mp_sum_i                            21  9.7    0.184    0.303    0.184    0.303
 restraint_control                    1  2.0    0.000    0.000    0.183    0.303
 vxc_of_r_new                      1044  9.0    0.001    0.046    0.004    0.302
 mp_isend_dv                      27352 11.8    0.205    0.278    0.205    0.278
 dbcsr_col_vec_to_rep_row          3775  8.0    0.026    0.031    0.208    0.274
 dbt_tas_estimate_result_nze          4 12.0    0.004    0.007    0.269    0.269
 dbcsr_desymmetrize_deep            124  7.4    0.005    0.006    0.239    0.245
 mp_alltoall_i11v                  1024  9.3    0.234    0.235    0.234    0.235
 offload_free_buffer                 96  8.5    0.207    0.233    0.207    0.233
 dbcsr_rep_row_to_rep_col_vec      3775  8.0    0.019    0.022    0.105    0.232
 qs_init_subsys                       1  2.0    0.005    0.005    0.231    0.232
 yz_to_xz                           176 14.0    0.016    0.018    0.217    0.231
 dbcsr_finalize                    7634 10.7    0.013    0.077    0.047    0.228
 qs_env_setup                         1  3.0    0.000    0.000    0.214    0.218
 qs_env_rebuild_pw_env                2  3.5    0.000    0.000    0.213    0.217
 pw_env_rebuild                       1  5.0    0.001    0.001    0.213    0.217
 multiply_cannon                    140  9.1    0.015    0.026    0.188    0.204
 calculate_rho0_atom                528  9.0    0.195    0.203    0.195    0.203
 pw_zero                            524 10.3    0.169    0.192    0.169    0.192
 create_integ_mat                     4  6.0    0.001    0.002    0.176    0.188
 update_ks_atom                      88  8.0    0.027    0.045    0.150    0.187
 fft_wrap_pw1pw2_10                 176 10.5    0.002    0.002    0.184    0.187
 array2fm                             4  7.0    0.000    0.000    0.152    0.184
 make_m2s                           280  9.1    0.007    0.008    0.169    0.178
 mp_rank_compare                   1839 12.9    0.150    0.173    0.150    0.173
 hybrid_alltoall_any                404 10.9    0.018    0.022    0.158    0.165
 fm_general_add_bse_1_setup           5 11.2    0.143    0.161    0.143    0.161
 mult_B_with_W                        1  8.0    0.000    0.000    0.155    0.161
 xz_to_yz                           176 11.0    0.011    0.013    0.155    0.159
 mp_bcast_dm                       3168  9.0    0.123    0.158    0.123    0.158
 fm_general_add_bse_4_buf_from_       1 10.0    0.138    0.157    0.138    0.157
 multiply_cannon_loop               140 10.1    0.022    0.023    0.134    0.148
 pw_grid_setup                        4  6.0    0.000    0.000    0.141    0.145
 pw_grid_setup_internal               4  7.0    0.003    0.004    0.141    0.145
 cp_fm_symm                          88  7.0    0.128    0.136    0.128    0.136
 fm_general_add_bse_4_buf_from_       1 10.0    0.110    0.130    0.110    0.130
 make_images                        280 10.1    0.019    0.035    0.113    0.121
 mp_alltoall_i22                    424  9.1    0.096    0.115    0.096    0.115
 rs_scatter_matrices                 88  7.0    0.001    0.013    0.110    0.112
 dbcsr_iterator_start             47133  8.8    0.056    0.088    0.067    0.112
 dbcsr_merge_all                   6604 11.4    0.017    0.087    0.026    0.109
 fm_general_add_bse_5_comm_buff       5 11.2    0.000    0.000    0.072    0.107
 communicate_buffer                   5 12.2    0.001    0.001    0.072    0.107
 dbcsr_copy                       15941  7.6    0.058    0.063    0.093    0.103
 postprocess_bse                      1  9.0    0.000    0.000    0.086    0.098
 scale_and_distribute               176 10.0    0.087    0.094    0.087    0.094
 array2fm_info                        4  8.0    0.071    0.092    0.073    0.093
 mp_sum_iv                          361  9.5    0.057    0.083    0.057    0.083
 cp_fm_create                       437  7.8    0.058    0.080    0.058    0.080
 pw_scale                           349  9.5    0.058    0.073    0.058    0.073
 dbcsr_create_new                 18995  8.9    0.045    0.060    0.058    0.072
 dbcsr_iterator_stop              47133  8.8    0.042    0.060    0.050    0.072
 mp_bcast_iv                        427  6.1    0.036    0.072    0.036    0.072
 fm_general_add_bse_6_buffer_to       1 10.0    0.047    0.071    0.047    0.071
 pw_grid_sort                         4  8.0    0.043    0.045    0.067    0.069
 dbt_split_blocks_generic            20  8.8    0.019    0.022    0.068    0.069
 mp_bcast_iv_src                    290  7.0    0.018    0.068    0.018    0.068
 compute_max_radius                   1  6.0    0.062    0.064    0.062    0.064
 abc_contract                     21884  9.0    0.031    0.064    0.031    0.064
 Q_trace_and_add_unit_matrix        100  8.0    0.009    0.011    0.043    0.063
 scf_post_calculation_gpw             1  3.0    0.000    0.000    0.060    0.061
 write_available_results              1  4.0    0.000    0.000    0.060    0.060
 write_mo_free_results                1  5.0    0.003    0.004    0.060    0.060
 make_images_sizes                  280 11.1    0.000    0.000    0.055    0.060
 mp_alltoall_i44                    280 12.1    0.055    0.060    0.055    0.060
 mp_alltoall_i                       39 13.9    0.045    0.060    0.045    0.060
 fm_general_add_bse_3_alloc_buf       5 11.2    0.040    0.057    0.040    0.057
 dbt_distribution_new_expert         76 10.1    0.001    0.002    0.052    0.055
 array2fm_fill                        4  8.0    0.015    0.022    0.030    0.053
 create_fast_row_vec_access        7550  8.0    0.031    0.036    0.048    0.053
 create_fast_col_vec_access        7550  8.0    0.031    0.036    0.048    0.053
 mp_irecv_dv                      27497 11.8    0.031    0.050    0.031    0.050
 get_multipoles_mo                    1 10.0    0.000    0.000    0.036    0.047
 multiply_cannon_metrocomm3        3360 11.1    0.005    0.006    0.026    0.047
 multiply_cannon_multrec           3360 11.1    0.031    0.046    0.032    0.047
 dbm_reserve_blocks                  64 13.9    0.041    0.046    0.041    0.046
 mixing_init                          1  5.0    0.041    0.045    0.045    0.046
 fm_general_add_bse_6_buffer_to       1 10.0    0.025    0.043    0.025    0.043
 cube_transpose_2                   176 11.0    0.003    0.004    0.037    0.043
 mp_wait                            138  9.0    0.016    0.042    0.016    0.042
 array2fm_buffer_send                 4  8.0    0.035    0.042    0.035    0.042
 self_consistency_check              87  5.0    0.000    0.000    0.026    0.039
 cp_sm_mix                           87  6.0    0.000    0.001    0.026    0.039
 mp_max_d                            89  6.9    0.025    0.038    0.025    0.038
 mp_cart_rank                    135444 10.8    0.030    0.037    0.030    0.037
 fm_general_add_bse_2_comm_entr       5 11.2    0.000    0.000    0.027    0.036
 dbcsr_work_create                 7264 10.5    0.005    0.024    0.008    0.036
 dbcsr_crop_matrix                  440 10.0    0.003    0.003    0.033    0.036
 mp_maxloc_dv                      1523  1.0    0.034    0.035    0.034    0.035
 get_2c_integrals                     1  6.0    0.000    0.000    0.032    0.035
 ao_to_mo_and_store_B_E_Ex_gw_1       6  7.0    0.010    0.015    0.023    0.035
 dbcsr_work_destroy_all            7264 11.4    0.005    0.025    0.007    0.034
 ao_to_mo_and_store_B_mult_gw_1       6  7.0    0.000    0.000    0.027    0.034
 cube_transpose_1                   176 14.0    0.003    0.003    0.031    0.034
 dbt_tas_distribution_new            92 11.7    0.023    0.024    0.032    0.033
 mp_allgather_i34                   140 10.1    0.030    0.033    0.030    0.033
 dbcsr_sym_matrix_vector_mult_l    3775  8.0    0.015    0.022    0.027    0.033
 dbcsr_scale_anytype               5738  9.0    0.011    0.012    0.029    0.033
 multiply_cannon_metrocomm1        3360 11.1    0.004    0.004    0.016    0.033
 dbt_tas_reserve_blocks_index        56 12.8    0.001    0.001    0.027    0.033
 make_images_data                   280 11.1    0.003    0.004    0.025    0.032
 write_mo_set_to_restart             87  5.0    0.001    0.006    0.012    0.031
 calc_fm_mat_S_rpa                  100  9.0    0.016    0.031    0.016    0.031
 mp_sum_im                        10910 13.0    0.024    0.030    0.024    0.030
 dbt_split_copyback                   4 10.0    0.017    0.024    0.023    0.030
 dbcsr_data_release               95213 10.1    0.017    0.029    0.017    0.029
 hirshfeld_integration                1  6.0    0.001    0.009    0.029    0.029
 mp_comm_split_direct                48 14.5    0.019    0.029    0.019    0.029
 dbt_reserve_blocks_index            36 10.8    0.001    0.001    0.024    0.029
 write_mo_set_low                     5  6.0    0.000    0.000    0.010    0.028
 cp_fm_write_unformatted              5  7.0    0.009    0.022    0.010    0.028
 print_transition_amplitudes          1 10.0    0.000    0.000    0.028    0.028
 print_transition_amplitudes_co      50 11.0    0.000    0.001    0.028    0.028
 filter_eigvec_contrib               50 12.0    0.016    0.017    0.028    0.028
 dbcsr_copy_submatrix               440 11.0    0.004    0.004    0.025    0.028
 dbt_create_new                      40  9.5    0.001    0.001    0.026    0.027
 -------------------------------------------------------------------------------

 The number of warnings for this run is : 2
 
 -------------------------------------------------------------------------------
  **** **** ******  **  PROGRAM ENDED AT                 2025-03-11 16:17:49.074
 ***** ** ***  *** **   PROGRAM RAN ON                              i06r02c03s03
 **    ****   ******    PROGRAM RAN BY                                   di38fab
 ***** **    ** ** **   PROGRAM PROCESS ID                               3411235
  **** **  *******  **  PROGRAM STOPPED IN /hppfs/scratch/04/di38fab/05_MOL/aUKB
                                           qsEOTmq69kFe5R_nOg/5k_set_final_qzvp/
                                           MAFTAQ/aug-cc-pVDZ
