SIRIUS 7.6.1, git hash: https://api.github.com/repos/electronic-structure/SIRIUS/git/ref/tags/v7.6.1
 DBCSR| CPU Multiplication driver                                           XSMM (U)
 DBCSR| Multrec recursion limit                                              512 (U)
 DBCSR| Multiplication stack size                                           1000 (D)
 DBCSR| Maximum elements for images                                    UNLIMITED (U)
 DBCSR| Multiplicative factor virtual images                                   1 (U)
 DBCSR| Use multiplication densification                                       T (D)
 DBCSR| Multiplication size stacks                                             3 (U)
 DBCSR| Use memory pool for CPU allocation                                     F (U)
 DBCSR| Number of 3D layers                                               SINGLE (U)
 DBCSR| Use MPI memory allocation                                              F (U)
 DBCSR| Use RMA algorithm                                                      F (U)
 DBCSR| Use Communication thread                                               T (U)
 DBCSR| Communication thread load                                             60 (D)
 DBCSR| MPI: My process id                                                     0
 DBCSR| MPI: Number of processes                                              80
 DBCSR| OMP: Current number of threads                                         8
 DBCSR| OMP: Max number of threads                                             8
 DBCSR| Split modifier for TAS multiplication algorithm                  1.0E+00 (U)


  **** **** ******  **  PROGRAM STARTED AT               2025-05-05 03:40:57.574
 ***** ** ***  *** **   PROGRAM STARTED ON                              n2cn0401
 **    ****   ******    PROGRAM STARTED BY                              metdyn02
 ***** **    ** ** **   PROGRAM PROCESS ID                               1086689
  **** **  *******  **  PROGRAM STARTED IN /scratch/hpc-prf-metdyn/metdyn02_Remi
                                           /10_MOL/05_MOL/aUKBqsEOTmq69kFe5R_nOg
                                           /5k_set_final_qzvp/VIDZIR/SZV/GW+BSE/
                                           RILIM

 CP2K| version string:                 CP2K version 2025.1 (Development Version)
 CP2K| source code revision number:                                  git:4803c37
 CP2K| cp2kflags: omp libint fftw3 libxc libgrpp elpa parallel scalapack mpi_f08
 CP2K|             cosma xsmm plumed2 spglib sirius libvori libbqb libvdwxc hdf5
 CP2K| is freely available from                            https://www.cp2k.org/
 CP2K| Program compiled at                         Thu Apr 10 12:05:05 CEST 2025
 CP2K| Program compiled on                                              n2login1
 CP2K| Program compiled for                                                local
 CP2K| Data directory path    /opt/software/pc2/EB-SW/software/CP2K/2024.1-foss-
 CP2K| Input file name                                                    GW.inp

 GLOBAL| Force Environment number                                              1
 GLOBAL| Basis set file name            /scratch/hpc-prf-metdyn/metdyn02_Remi/BA
 GLOBAL| Potential file name            /pc2/groups/hpc-prf-metdyn/metdyn02_Remi
 GLOBAL| MM Potential file name                                     MM_POTENTIAL
 GLOBAL| Coordinate file name                                      __STD_INPUT__
 GLOBAL| Method name                                                        CP2K
 GLOBAL| Project name                                                       MoS2
 GLOBAL| Run type                                                         ENERGY
 GLOBAL| FFT library                                                       FFTW3
 GLOBAL| Diagonalization library                                            ELPA
 GLOBAL| DGEMM library                                                      BLAS
 GLOBAL| Minimum number of eigenvectors for ELPA usage                        16
 GLOBAL| Orthonormality check for eigenvectors                          DISABLED
 GLOBAL| Matrix multiplication library                                     COSMA
 GLOBAL| All-to-all communication in single precision                          F
 GLOBAL| FFTs using library dependent lengths                                  F
 GLOBAL| Grid backend                                                       AUTO
 GLOBAL| Global print level                                               MEDIUM
 GLOBAL| MPI I/O enabled                                                       T
 GLOBAL| Total number of message passing processes                            80
 GLOBAL| Number of threads for this process                                    8
 GLOBAL| This output is from process                                           0
 GLOBAL| OpenMP stack size per thread (OMP_STACKSIZE)                    default
 GLOBAL| CPU model name                          AMD EPYC 7763 64-Core Processor
 GLOBAL| CPUID                                                              1002

 MEMORY| system memory details [Kb]
 MEMORY|                        rank 0           min           max       average
 MEMORY| MemTotal            263899264     263899260     263899264     263899262
 MEMORY| MemFree             249702428     247582632     255059948     250819310
 MEMORY| Buffers                266148         20504        330256        166505
 MEMORY| Cached                6252732       4000632       8270480       6001278
 MEMORY| Slab                  2709800       1521476       2709800       2194270
 MEMORY| SReclaimable           931712        228984        931712        421651
 MEMORY| MemLikelyFree       257153020     256555172     259389460     257408746


 *** Fundamental physical constants (SI units) ***

 *** Literature: B. J. Mohr and B. N. Taylor,
 ***             CODATA recommended values of the fundamental physical
 ***             constants: 2006, Web Version 5.1
 ***             http://physics.nist.gov/constants

 Speed of light in vacuum [m/s]                             2.99792458000000E+08
 Magnetic constant or permeability of vacuum [N/A**2]       1.25663706143592E-06
 Electric constant or permittivity of vacuum [F/m]          8.85418781762039E-12
 Planck constant (h) [J*s]                                  6.62606896000000E-34
 Planck constant (h-bar) [J*s]                              1.05457162825177E-34
 Elementary charge [C]                                      1.60217648700000E-19
 Electron mass [kg]                                         9.10938215000000E-31
 Electron g factor [ ]                                     -2.00231930436220E+00
 Proton mass [kg]                                           1.67262163700000E-27
 Fine-structure constant                                    7.29735253760000E-03
 Rydberg constant [1/m]                                     1.09737315685270E+07
 Avogadro constant [1/mol]                                  6.02214179000000E+23
 Boltzmann constant [J/K]                                   1.38065040000000E-23
 Atomic mass unit [kg]                                      1.66053878200000E-27
 Bohr radius [m]                                            5.29177208590000E-11

 *** Conversion factors ***

 [u] -> [a.u.]                                              1.82288848426455E+03
 [Angstrom] -> [Bohr] = [a.u.]                              1.88972613288564E+00
 [a.u.] = [Bohr] -> [Angstrom]                              5.29177208590000E-01
 [a.u.] -> [s]                                              2.41888432650478E-17
 [a.u.] -> [fs]                                             2.41888432650478E-02
 [a.u.] -> [J]                                              4.35974393937059E-18
 [a.u.] -> [N]                                              8.23872205491840E-08
 [a.u.] -> [K]                                              3.15774647902944E+05
 [a.u.] -> [kJ/mol]                                         2.62549961709828E+03
 [a.u.] -> [kcal/mol]                                       6.27509468713739E+02
 [a.u.] -> [Pa]                                             2.94210107994716E+13
 [a.u.] -> [bar]                                            2.94210107994716E+08
 [a.u.] -> [atm]                                            2.90362800883016E+08
 [a.u.] -> [eV]                                             2.72113838565563E+01
 [a.u.] -> [Hz]                                             6.57968392072181E+15
 [a.u.] -> [1/cm] (wave numbers)                            2.19474631370540E+05
 [a.u./Bohr**2] -> [1/cm]                                   5.14048714338585E+03
 

 CELL_TOP| Volume [angstrom^3]:                                     27000.000000
 CELL_TOP| Vector a [angstrom    30.000     0.000     0.000   |a| =    30.000000
 CELL_TOP| Vector b [angstrom     0.000    30.000     0.000   |b| =    30.000000
 CELL_TOP| Vector c [angstrom     0.000     0.000    30.000   |c| =    30.000000
 CELL_TOP| Angle (b,c), alpha [degree]:                                90.000000
 CELL_TOP| Angle (a,c), beta  [degree]:                                90.000000
 CELL_TOP| Angle (a,b), gamma [degree]:                                90.000000
 CELL_TOP| Numerically orthorhombic:                                         YES
 CELL_TOP| Periodicity                                                      NONE

 GENERATE|  Preliminary Number of Bonds generated:                             0
 GENERATE|  Achieved consistency in connectivity generation.

 CELL| Volume [angstrom^3]:                                         27000.000000
 CELL| Vector a [angstrom]:      30.000     0.000     0.000   |a| =    30.000000
 CELL| Vector b [angstrom]:       0.000    30.000     0.000   |b| =    30.000000
 CELL| Vector c [angstrom]:       0.000     0.000    30.000   |c| =    30.000000
 CELL| Angle (b,c), alpha [degree]:                                    90.000000
 CELL| Angle (a,c), beta  [degree]:                                    90.000000
 CELL| Angle (a,b), gamma [degree]:                                    90.000000
 CELL| Numerically orthorhombic:                                             YES
 CELL| Periodicity                                                          NONE

 CELL_REF| Volume [angstrom^3]:                                     27000.000000
 CELL_REF| Vector a [angstrom    30.000     0.000     0.000   |a| =    30.000000
 CELL_REF| Vector b [angstrom     0.000    30.000     0.000   |b| =    30.000000
 CELL_REF| Vector c [angstrom     0.000     0.000    30.000   |c| =    30.000000
 CELL_REF| Angle (b,c), alpha [degree]:                                90.000000
 CELL_REF| Angle (a,c), beta  [degree]:                                90.000000
 CELL_REF| Angle (a,b), gamma [degree]:                                90.000000
 CELL_REF| Numerically orthorhombic:                                         YES
 CELL_REF| Periodicity                                                      NONE

 *******************************************************************************
 *******************************************************************************
 **                                                                           **
 **     #####                         ##              ##                      **
 **    ##   ##            ##          ##              ##                      **
 **   ##     ##                       ##            ######                    **
 **   ##     ##  ##   ##  ##   #####  ##  ##   ####   ##    #####    #####    **
 **   ##     ##  ##   ##  ##  ##      ## ##   ##      ##   ##   ##  ##   ##   **
 **   ##  ## ##  ##   ##  ##  ##      ####     ###    ##   ######   ######    **
 **    ##  ###   ##   ##  ##  ##      ## ##      ##   ##   ##       ##        **
 **     #######   #####   ##   #####  ##  ##  ####    ##    #####   ##        **
 **           ##                                                    ##        **
 **                                                                           **
 **                                                ... make the atoms dance   **
 **                                                                           **
 **            Copyright (C) by CP2K developers group (2000-2025)             **
 **                      J. Chem. Phys. 152, 194103 (2020)                    **
 **                                                                           **
 *******************************************************************************

 DFT| Spin restricted Kohn-Sham (RKS) calculation                            RKS
 DFT| Multiplicity                                                             1
 DFT| Number of spin states                                                    1
 DFT| Charge                                                                   0
 DFT| Self-interaction correction (SIC)                                       NO
 DFT| Cutoffs: density                                              1.000000E-10
 DFT|          gradient                                             1.000000E-10
 DFT|          tau                                                  1.000000E-10
 DFT|          cutoff_smoothing_range                               0.000000E+00
 DFT| XC density smoothing                                                  NONE
 DFT| XC derivatives                                                          PW

 FUNCTIONAL| PBE:
 FUNCTIONAL| J.P.Perdew, K.Burke, M.Ernzerhof, Phys. Rev. Letter, vol. 77, n 18,
 FUNCTIONAL|  pp. 3865-3868, (1996)sx=0.750sc=1.000{spin unpolarized}           


 QS| Method:                                                                GAPW
 QS| Density plane wave grid type                        NON-SPHERICAL FULLSPACE
 QS| Number of grid levels:                                                    4
 QS| Density cutoff [a.u.]:                                                250.0
 QS| Multi grid cutoff [a.u.]: 1) grid level                               250.0
 QS|                           2) grid level                                83.3
 QS|                           3) grid level                                27.8
 QS|                           4) grid level                                 9.3
 QS| Grid level progression factor:                                          3.0
 QS| Relative density cutoff [a.u.]:                                        50.0
 QS| Interaction thresholds: eps_pgf_orb:                                1.0E-12
 QS|                         eps_filter_matrix:                          0.0E+00
 QS|                         eps_core_charge:                            1.0E-14
 QS|                         eps_rho_gspace:                             1.0E-12
 QS|                         eps_rho_rspace:                             1.0E-12
 QS|                         eps_gvg_rspace:                             1.0E-06
 QS|                         eps_ppl:                                    1.0E-02
 QS|                         eps_ppnl:                                   1.0E-08
 QS| GAPW|      One center basis from orbital basis primitives
 QS| GAPW|                   eps_fit:                                    1.0E-04
 QS| GAPW|                   eps_iso:                                    1.0E-12
 QS| GAPW|                   eps_svd:                                    1.0E-08
 QS| GAPW|                   eps_cpc:                                    1.0E-12
 QS| GAPW|   atom-r-grid: quadrature:                                     GC_LOG
 QS| GAPW|      atom-s-grid:  max l :                                          4
 QS| GAPW|      max_l_rho0 :                                                   2


 ATOMIC KIND INFORMATION

  1. Atomic kind: Cl                                    Number of atoms:       1

     Orbital Basis Set                                         aug-SZV-MOLOPT-ae

       Number of orbital shell sets:                                           3
       Number of orbital shells:                                               8
       Number of primitive Cartesian functions:                               19
       Number of Cartesian basis functions:                                   19
       Number of spherical basis functions:                                   18
       Norm type:                                                              2

       Normalised Cartesian orbitals:

                        Set   Shell   Orbital            Exponent    Coefficient

                          1       1    1s                0.077000       0.000000
                                                         0.155732       0.048775
                                                         0.302177       0.213641
                                                         0.610646       0.074372
                                                         1.364210      -0.160589
                                                         3.637791      -0.133295
                                                        13.583529      -0.040055

                          1       2    2s                0.077000       0.113098
                                                         0.155732      -0.001418
                                                         0.302177      -0.032953
                                                         0.610646       0.000940
                                                         1.364210      -0.000650
                                                         3.637791      -0.006480
                                                        13.583529       0.000000

                          1       3    2px               0.077000       0.000000
                                                         0.155732       0.014765
                                                         0.302177       0.156150
                                                         0.610646       0.318942
                                                         1.364210       0.160173
                                                         3.637791      -0.130999
                                                        13.583529      -0.265378
                          1       3    2py               0.077000       0.000000
                                                         0.155732       0.014765
                                                         0.302177       0.156150
                                                         0.610646       0.318942
                                                         1.364210       0.160173
                                                         3.637791      -0.130999
                                                        13.583529      -0.265378
                          1       3    2pz               0.077000       0.000000
                                                         0.155732       0.014765
                                                         0.302177       0.156150
                                                         0.610646       0.318942
                                                         1.364210       0.160173
                                                         3.637791      -0.130999
                                                        13.583529      -0.265378

                          1       4    3px               0.077000       0.044533
                                                         0.155732       0.031887
                                                         0.302177       0.011087
                                                         0.610646      -0.025806
                                                         1.364210       0.119111
                                                         3.637791       0.324938
                                                        13.583529       0.000000
                          1       4    3py               0.077000       0.044533
                                                         0.155732       0.031887
                                                         0.302177       0.011087
                                                         0.610646      -0.025806
                                                         1.364210       0.119111
                                                         3.637791       0.324938
                                                        13.583529       0.000000
                          1       4    3pz               0.077000       0.044533
                                                         0.155732       0.031887
                                                         0.302177       0.011087
                                                         0.610646      -0.025806
                                                         1.364210       0.119111
                                                         3.637791       0.324938
                                                        13.583529       0.000000

                          1       5    3dx2              0.077000       0.003672
                                                         0.155732       0.001893
                                                         0.302177       0.117944
                                                         0.610646       0.097225
                                                         1.364210       0.782555
                                                         3.637791       0.872236
                                                        13.583529       0.000000
                          1       5    3dxy              0.077000       0.006359
                                                         0.155732       0.003279
                                                         0.302177       0.204285
                                                         0.610646       0.168398
                                                         1.364210       1.355425
                                                         3.637791       1.510758
                                                        13.583529       0.000000
                          1       5    3dxz              0.077000       0.006359
                                                         0.155732       0.003279
                                                         0.302177       0.204285
                                                         0.610646       0.168398
                                                         1.364210       1.355425
                                                         3.637791       1.510758
                                                        13.583529       0.000000
                          1       5    3dy2              0.077000       0.003672
                                                         0.155732       0.001893
                                                         0.302177       0.117944
                                                         0.610646       0.097225
                                                         1.364210       0.782555
                                                         3.637791       0.872236
                                                        13.583529       0.000000
                          1       5    3dyz              0.077000       0.006359
                                                         0.155732       0.003279
                                                         0.302177       0.204285
                                                         0.610646       0.168398
                                                         1.364210       1.355425
                                                         3.637791       1.510758
                                                        13.583529       0.000000
                          1       5    3dz2              0.077000       0.003672
                                                         0.155732       0.001893
                                                         0.302177       0.117944
                                                         0.610646       0.097225
                                                         1.364210       0.782555
                                                         3.637791       0.872236
                                                        13.583529       0.000000

                          2       1    1s              403.972966      -0.851102
                                                        79.956793      -0.895515
                                                        24.850512      -0.268003
                                                         9.560888       0.969714
                                                         4.152300       1.233756
                                                         1.903303       0.277989

                          2       2    2px             403.972966       9.705843
                                                        79.956793      12.841416
                                                        24.850512      13.753103
                                                         9.560888      10.017907
                                                         4.152300       3.598052
                                                         1.903303       0.324102
                          2       2    2py             403.972966       9.705843
                                                        79.956793      12.841416
                                                        24.850512      13.753103
                                                         9.560888      10.017907
                                                         4.152300       3.598052
                                                         1.903303       0.324102
                          2       2    2pz             403.972966       9.705843
                                                        79.956793      12.841416
                                                        24.850512      13.753103
                                                         9.560888      10.017907
                                                         4.152300       3.598052
                                                         1.903303       0.324102

                          3       1    1s             6236.545525       4.583362
                                                      1143.463795       6.917755
                                                       319.899964       9.085929
                                                       109.894271       8.964028
                                                        42.675161       4.956187
                                                        17.575988       0.797366

     RI Auxiliary Basis Set             RI_aug-SZV-MOLOPT-ae_N_RI_112_s_p_d_f_g_

       Number of orbital shell sets:                                          24
       Number of orbital shells:                                              24
       Number of primitive Cartesian functions:                               24
       Number of Cartesian basis functions:                                  167
       Number of spherical basis functions:                                  112
       Norm type:                                                              2

       Normalised Cartesian orbitals:

                        Set   Shell   Orbital            Exponent    Coefficient

                          1       1   20gx4              0.279015       0.033259
                          1       1   20gx3y             0.279015       0.087996
                          1       1   20gx3z             0.279015       0.087996
                          1       1   20gx2y2            0.279015       0.113602
                          1       1   20gx2yz            0.279015       0.196764
                          1       1   20gx2z2            0.279015       0.113602
                          1       1   20gxy3             0.279015       0.087996
                          1       1   20gxy2z            0.279015       0.196764
                          1       1   20gxyz2            0.279015       0.196764
                          1       1   20gxz3             0.279015       0.087996
                          1       1   20gy4              0.279015       0.033259
                          1       1   20gy3z             0.279015       0.087996
                          1       1   20gy2z2            0.279015       0.113602
                          1       1   20gyz3             0.279015       0.087996
                          1       1   20gz4              0.279015       0.033259

                          2       1    8px               0.330765       0.357552
                          2       1    8py               0.330765       0.357552
                          2       1    8pz               0.330765       0.357552

                          3       1    1s                0.339703       0.317128

                          4       1   14dx2              0.562661       0.601646
                          4       1   14dxy              0.562661       1.042081
                          4       1   14dxz              0.562661       1.042081
                          4       1   14dy2              0.562661       0.601646
                          4       1   14dyz              0.562661       1.042081
                          4       1   14dz2              0.562661       0.601646

                          5       1   17fx3              0.671109       0.600120
                          5       1   17fx2y             0.671109       1.341909
                          5       1   17fx2z             0.671109       1.341909
                          5       1   17fxy2             0.671109       1.341909
                          5       1   17fxyz             0.671109       2.324255
                          5       1   17fxz2             0.671109       1.341909
                          5       1   17fy3              0.671109       0.600120
                          5       1   17fy2z             0.671109       1.341909
                          5       1   17fyz2             0.671109       1.341909
                          5       1   17fz3              0.671109       0.600120

                          6       1    2s                0.711571       0.552172

                          7       1    9px               0.728662       0.959616
                          7       1    9py               0.728662       0.959616
                          7       1    9pz               0.728662       0.959616

                          8       1   21gx4              1.066208       1.327398
                          8       1   21gx3y             1.066208       3.511964
                          8       1   21gx3z             1.066208       3.511964
                          8       1   21gx2y2            1.066208       4.533926
                          8       1   21gx2yz            1.066208       7.852990
                          8       1   21gx2z2            1.066208       4.533926
                          8       1   21gxy3             1.066208       3.511964
                          8       1   21gxy2z            1.066208       7.852990
                          8       1   21gxyz2            1.066208       7.852990
                          8       1   21gxz3             1.066208       3.511964
                          8       1   21gy4              1.066208       1.327398
                          8       1   21gy3z             1.066208       3.511964
                          8       1   21gy2z2            1.066208       4.533926
                          8       1   21gyz3             1.066208       3.511964
                          8       1   21gz4              1.066208       1.327398

                          9       1   15dx2              1.149113       2.099155
                          9       1   15dxy              1.149113       3.635843
                          9       1   15dxz              1.149113       3.635843
                          9       1   15dy2              1.149113       2.099155
                          9       1   15dyz              1.149113       3.635843
                          9       1   15dz2              1.149113       2.099155

                         10       1   18fx3              1.633659       4.441887
                         10       1   18fx2y             1.633659       9.932362
                         10       1   18fx2z             1.633659       9.932362
                         10       1   18fxy2             1.633659       9.932362
                         10       1   18fxyz             1.633659      17.203356
                         10       1   18fxz2             1.633659       9.932362
                         10       1   18fy3              1.633659       4.441887
                         10       1   18fy2z             1.633659       9.932362
                         10       1   18fyz2             1.633659       9.932362
                         10       1   18fz3              1.633659       4.441887

                         11       1   23hx5              1.666224       3.899222
                         11       1   23hx4y             1.666224      11.697667
                         11       1   23hx4z             1.666224      11.697667
                         11       1   23hx3y2            1.666224      17.868481
                         11       1   23hx3yz            1.666224      30.949117
                         11       1   23hx3z2            1.666224      17.868481
                         11       1   23hx2y3            1.666224      17.868481
                         11       1   23hx2y2z           1.666224      39.955139
                         11       1   23hx2yz2           1.666224      39.955139
                         11       1   23hx2z3            1.666224      17.868481
                         11       1   23hxy4             1.666224      11.697667
                         11       1   23hxy3z            1.666224      30.949117
                         11       1   23hxy2z2           1.666224      39.955139
                         11       1   23hxyz3            1.666224      30.949117
                         11       1   23hxz4             1.666224      11.697667
                         11       1   23hy5              1.666224       3.899222
                         11       1   23hy4z             1.666224      11.697667
                         11       1   23hy3z2            1.666224      17.868481
                         11       1   23hy2z3            1.666224      17.868481
                         11       1   23hyz4             1.666224      11.697667
                         11       1   23hz5              1.666224       3.899222

                         12       1   24ix6              1.924248       5.207825
                         12       1   24ix5y             1.924248      17.272401
                         12       1   24ix5z             1.924248      17.272401
                         12       1   24ix4y2            1.924248      29.916676
                         12       1   24ix4yz            1.924248      51.817204
                         12       1   24ix4z2            1.924248      29.916676
                         12       1   24ix3y3            1.924248      35.397889
                         12       1   24ix3y2z           1.924248      79.152086
                         12       1   24ix3yz2           1.924248      79.152086
                         12       1   24ix3z3            1.924248      35.397889
                         12       1   24ix2y4            1.924248      29.916676
                         12       1   24ix2y3z           1.924248      79.152086
                         12       1   24ix2y2z2          1.924248     102.184904
                         12       1   24ix2yz3           1.924248      79.152086
                         12       1   24ix2z4            1.924248      29.916676
                         12       1   24ixy5             1.924248      17.272401
                         12       1   24ixy4z            1.924248      51.817204
                         12       1   24ixy3z2           1.924248      79.152086
                         12       1   24ixy2z3           1.924248      79.152086
                         12       1   24ixyz4            1.924248      51.817204
                         12       1   24ixz5             1.924248      17.272401
                         12       1   24iy6              1.924248       5.207825
                         12       1   24iy5z             1.924248      17.272401
                         12       1   24iy4z2            1.924248      29.916676
                         12       1   24iy3z3            1.924248      35.397889
                         12       1   24iy2z4            1.924248      29.916676
                         12       1   24iyz5             1.924248      17.272401
                         12       1   24iz6              1.924248       5.207825

                         13       1   22gx4              2.220982       9.986982
                         13       1   22gx3y             2.220982      26.423072
                         13       1   22gx3z             2.220982      26.423072
                         13       1   22gx2y2            2.220982      34.112039
                         13       1   22gx2yz            2.220982      59.083785
                         13       1   22gx2z2            2.220982      34.112039
                         13       1   22gxy3             2.220982      26.423072
                         13       1   22gxy2z            2.220982      59.083785
                         13       1   22gxyz2            2.220982      59.083785
                         13       1   22gxz3             2.220982      26.423072
                         13       1   22gy4              2.220982       9.986982
                         13       1   22gy3z             2.220982      26.423072
                         13       1   22gy2z2            2.220982      34.112039
                         13       1   22gyz3             2.220982      26.423072
                         13       1   22gz4              2.220982       9.986982

                         14       1    3s                2.450225       1.395772

                         15       1   10px               3.102999       5.870393
                         15       1   10py               3.102999       5.870393
                         15       1   10pz               3.102999       5.870393

                         16       1   19fx3              7.124016     122.063406
                         16       1   19fx2y             7.124016     272.942072
                         16       1   19fx2z             7.124016     272.942072
                         16       1   19fxy2             7.124016     272.942072
                         16       1   19fxyz             7.124016     472.749537
                         16       1   19fxz2             7.124016     272.942072
                         16       1   19fy3              7.124016     122.063406
                         16       1   19fy2z             7.124016     272.942072
                         16       1   19fyz2             7.124016     272.942072
                         16       1   19fz3              7.124016     122.063406

                         17       1    4s                8.846809       3.655948

                         18       1   11px              11.089446      28.845456
                         18       1   11py              11.089446      28.845456
                         18       1   11pz              11.089446      28.845456

                         19       1   16dx2             26.850040     521.270449
                         19       1   16dxy             26.850040     902.866903
                         19       1   16dxz             26.850040     902.866903
                         19       1   16dy2             26.850040     521.270449
                         19       1   16dyz             26.850040     902.866903
                         19       1   16dz2             26.850040     521.270449

                         20       1    5s               32.149471       9.622556

                         21       1   12px              38.748652     137.803687
                         21       1   12py              38.748652     137.803687
                         21       1   12pz              38.748652     137.803687

                         22       1    6s              116.893242      25.336822

                         23       1   13px             135.032822     656.129050
                         23       1   13py             135.032822     656.129050
                         23       1   13pz             135.032822     656.129050

                         24       1    7s              425.072226      66.720169

       Atomic covalent radius [Angstrom]:                                  0.990

       Atomic van der Waals radius [Angstrom]:                             1.750

     The atoms of this atomic kind are PAW atoms (GAPW):
       Hard Gaussian function radius:                                      1.512
       Rho0 radius:                                                        1.512
       Maximum GTO radius used for PAW projector construction:            24.566

     GAPW Soft Basis Set                                  aug-SZV-MOLOPT-ae_soft

       Number of orbital shell sets:                                           3
       Number of orbital shells:                                               8
       Number of primitive Cartesian functions:                                8
       Number of Cartesian basis functions:                                   19
       Number of spherical basis functions:                                   18
       Norm type:                                                              2

       Normalised Cartesian orbitals:

                        Set   Shell   Orbital            Exponent    Coefficient

                          1       1    1s                0.077000       0.000000
                                                         0.155732       0.048775
                                                         0.302177       0.213641
                                                         0.610646       0.074372
                                                         1.364210      -0.160589
                                                         3.637791      -0.133295

                          1       2    2s                0.077000       0.113098
                                                         0.155732      -0.001418
                                                         0.302177      -0.032953
                                                         0.610646       0.000940
                                                         1.364210      -0.000650
                                                         3.637791      -0.006480

                          1       3    2px               0.077000       0.000000
                                                         0.155732       0.014765
                                                         0.302177       0.156150
                                                         0.610646       0.318942
                                                         1.364210       0.160173
                                                         3.637791      -0.130999
                          1       3    2py               0.077000       0.000000
                                                         0.155732       0.014765
                                                         0.302177       0.156150
                                                         0.610646       0.318942
                                                         1.364210       0.160173
                                                         3.637791      -0.130999
                          1       3    2pz               0.077000       0.000000
                                                         0.155732       0.014765
                                                         0.302177       0.156150
                                                         0.610646       0.318942
                                                         1.364210       0.160173
                                                         3.637791      -0.130999

                          1       4    3px               0.077000       0.044533
                                                         0.155732       0.031887
                                                         0.302177       0.011087
                                                         0.610646      -0.025806
                                                         1.364210       0.119111
                                                         3.637791       0.324938
                          1       4    3py               0.077000       0.044533
                                                         0.155732       0.031887
                                                         0.302177       0.011087
                                                         0.610646      -0.025806
                                                         1.364210       0.119111
                                                         3.637791       0.324938
                          1       4    3pz               0.077000       0.044533
                                                         0.155732       0.031887
                                                         0.302177       0.011087
                                                         0.610646      -0.025806
                                                         1.364210       0.119111
                                                         3.637791       0.324938

                          1       5    3dx2              0.077000       0.003672
                                                         0.155732       0.001893
                                                         0.302177       0.117944
                                                         0.610646       0.097225
                                                         1.364210       0.782555
                                                         3.637791       0.872236
                          1       5    3dxy              0.077000       0.006359
                                                         0.155732       0.003279
                                                         0.302177       0.204285
                                                         0.610646       0.168398
                                                         1.364210       1.355425
                                                         3.637791       1.510758
                          1       5    3dxz              0.077000       0.006359
                                                         0.155732       0.003279
                                                         0.302177       0.204285
                                                         0.610646       0.168398
                                                         1.364210       1.355425
                                                         3.637791       1.510758
                          1       5    3dy2              0.077000       0.003672
                                                         0.155732       0.001893
                                                         0.302177       0.117944
                                                         0.610646       0.097225
                                                         1.364210       0.782555
                                                         3.637791       0.872236
                          1       5    3dyz              0.077000       0.006359
                                                         0.155732       0.003279
                                                         0.302177       0.204285
                                                         0.610646       0.168398
                                                         1.364210       1.355425
                                                         3.637791       1.510758
                          1       5    3dz2              0.077000       0.003672
                                                         0.155732       0.001893
                                                         0.302177       0.117944
                                                         0.610646       0.097225
                                                         1.364210       0.782555
                                                         3.637791       0.872236

                          2       1    1s                4.152300       0.000000
                                                         1.903303       0.277989

                          2       2    2px               4.152300       3.598052
                                                         1.903303       0.324102
                          2       2    2py               4.152300       3.598052
                                                         1.903303       0.324102
                          2       2    2pz               4.152300       3.598052
                                                         1.903303       0.324102

                          3       1    1s         

     AE Potential information for                                            ALL

       Description:                                       All-electron potential
                                          Krack, Parrinello, PCCP 2, 2105 (2000)

       Gaussian exponent of the core charge distribution:               2.974420
       Electronic configuration (s p d ...):                           6  11   0

  2. Atomic kind: N                                     Number of atoms:       2

     Orbital Basis Set                                         aug-SZV-MOLOPT-ae

       Number of orbital shell sets:                                           2
       Number of orbital shells:                                               6
       Number of primitive Cartesian functions:                               13
       Number of Cartesian basis functions:                                   15
       Number of spherical basis functions:                                   14
       Norm type:                                                              2

       Normalised Cartesian orbitals:

                        Set   Shell   Orbital            Exponent    Coefficient

                          1       1    1s                0.090000       0.000000
                                                         0.184684       0.048330
                                                         0.402911       0.214496
                                                         0.927724       0.168591
                                                         2.411326      -0.046594
                                                         7.758467      -0.155691
                                                        39.198808      -0.147969

                          1       2    2s                0.090000      -0.118940
                                                         0.184684       0.080942
                                                         0.402911      -0.164238
                                                         0.927724      -0.024406
                                                         2.411326       0.000000
                                                         7.758467       0.000000
                                                        39.198808       0.000000

                          1       3    2px               0.090000       0.000000
                                                         0.184684       0.017552
                                                         0.402911       0.194858
                                                         0.927724       0.542535
                                                         2.411326       0.744820
                                                         7.758467       0.695446
                                                        39.198808       0.525635
                          1       3    2py               0.090000       0.000000
                                                         0.184684       0.017552
                                                         0.402911       0.194858
                                                         0.927724       0.542535
                                                         2.411326       0.744820
                                                         7.758467       0.695446
                                                        39.198808       0.525635
                          1       3    2pz               0.090000       0.000000
                                                         0.184684       0.017552
                                                         0.402911       0.194858
                                                         0.927724       0.542535
                                                         2.411326       0.744820
                                                         7.758467       0.695446
                                                        39.198808       0.525635

                          1       4    3px               0.090000      -0.032237
                                                         0.184684      -0.080882
                                                         0.402911       0.112185
                                                         0.927724       1.067728
                                                         2.411326       0.000000
                                                         7.758467       0.000000
                                                        39.198808       0.000000
                          1       4    3py               0.090000      -0.032237
                                                         0.184684      -0.080882
                                                         0.402911       0.112185
                                                         0.927724       1.067728
                                                         2.411326       0.000000
                                                         7.758467       0.000000
                                                        39.198808       0.000000
                          1       4    3pz               0.090000      -0.032237
                                                         0.184684      -0.080882
                                                         0.402911       0.112185
                                                         0.927724       1.067728
                                                         2.411326       0.000000
                                                         7.758467       0.000000
                                                        39.198808       0.000000

                          1       5    3dx2              0.090000      -0.010633
                                                         0.184684      -0.050923
                                                         0.402911       0.103346
                                                         0.927724      -0.777682
                                                         2.411326       0.000000
                                                         7.758467       0.000000
                                                        39.198808       0.000000
                          1       5    3dxy              0.090000      -0.018417
                                                         0.184684      -0.088201
                                                         0.402911       0.179000
                                                         0.927724      -1.346985
                                                         2.411326       0.000000
                                                         7.758467       0.000000
                                                        39.198808       0.000000
                          1       5    3dxz              0.090000      -0.018417
                                                         0.184684      -0.088201
                                                         0.402911       0.179000
                                                         0.927724      -1.346985
                                                         2.411326       0.000000
                                                         7.758467       0.000000
                                                        39.198808       0.000000
                          1       5    3dy2              0.090000      -0.010633
                                                         0.184684      -0.050923
                                                         0.402911       0.103346
                                                         0.927724      -0.777682
                                                         2.411326       0.000000
                                                         7.758467       0.000000
                                                        39.198808       0.000000
                          1       5    3dyz              0.090000      -0.018417
                                                         0.184684      -0.088201
                                                         0.402911       0.179000
                                                         0.927724      -1.346985
                                                         2.411326       0.000000
                                                         7.758467       0.000000
                                                        39.198808       0.000000
                          1       5    3dz2              0.090000      -0.010633
                                                         0.184684      -0.050923
                                                         0.402911       0.103346
                                                         0.927724      -0.777682
                                                         2.411326       0.000000
                                                         7.758467       0.000000
                                                        39.198808       0.000000

                          2       1    1s             1027.828458       1.185541
                                                       188.451223       1.789359
                                                        52.721861       2.350183
                                                        18.111382       2.318652
                                                         7.033180       1.281976
                                                         2.896652       0.206248

     RI Auxiliary Basis Set             RI_aug-SZV-MOLOPT-ae_N_RI_078_s_p_d_f_g_

       Number of orbital shell sets:                                          22
       Number of orbital shells:                                              22
       Number of primitive Cartesian functions:                               22
       Number of Cartesian basis functions:                                   95
       Number of spherical basis functions:                                   78
       Norm type:                                                              2

       Normalised Cartesian orbitals:

                        Set   Shell   Orbital            Exponent    Coefficient

                          1       1   14dx2              0.291362       0.190181
                          1       1   14dxy              0.291362       0.329403
                          1       1   14dxz              0.291362       0.329403
                          1       1   14dy2              0.291362       0.190181
                          1       1   14dyz              0.291362       0.329403
                          1       1   14dz2              0.291362       0.190181

                          2       1    1s                0.318618       0.302248

                          3       1    8px               0.321098       0.344538
                          3       1    8py               0.321098       0.344538
                          3       1    8pz               0.321098       0.344538

                          4       1   19fx3              0.487459       0.292291
                          4       1   19fx2y             0.487459       0.653583
                          4       1   19fx2z             0.487459       0.653583
                          4       1   19fxy2             0.487459       0.653583
                          4       1   19fxyz             0.487459       1.132040
                          4       1   19fxz2             0.487459       0.653583
                          4       1   19fy3              0.487459       0.292291
                          4       1   19fy2z             0.487459       0.653583
                          4       1   19fyz2             0.487459       0.653583
                          4       1   19fz3              0.487459       0.292291

                          5       1    2s                0.502813       0.425564

                          6       1   15dx2              0.593989       0.661488
                          6       1   15dxy              0.593989       1.145730
                          6       1   15dxz              0.593989       1.145730
                          6       1   15dy2              0.593989       0.661488
                          6       1   15dyz              0.593989       1.145730
                          6       1   15dz2              0.593989       0.661488

                          7       1    9px               0.734849       0.969812
                          7       1    9py               0.734849       0.969812
                          7       1    9pz               0.734849       0.969812

                          8       1   20fx3              0.908355       1.185848
                          8       1   20fx2y             0.908355       2.651637
                          8       1   20fx2z             0.908355       2.651637
                          8       1   20fxy2             0.908355       2.651637
                          8       1   20fxyz             0.908355       4.592770
                          8       1   20fxz2             0.908355       2.651637
                          8       1   20fy3              0.908355       1.185848
                          8       1   20fy2z             0.908355       2.651637
                          8       1   20fyz2             0.908355       2.651637
                          8       1   20fz3              0.908355       1.185848

                          9       1    3s                1.242358       0.838678

                         10       1   16dx2              1.253766       2.445054
                         10       1   16dxy              1.253766       4.234958
                         10       1   16dxz              1.253766       4.234958
                         10       1   16dy2              1.253766       2.445054
                         10       1   16dyz              1.253766       4.234958
                         10       1   16dz2              1.253766       2.445054

                         11       1   10px               1.585831       2.536655
                         11       1   10py               1.585831       2.536655
                         11       1   10pz               1.585831       2.536655

                         12       1   21fx3              1.761593       5.263108
                         12       1   21fx2y             1.761593      11.768666
                         12       1   21fx2z             1.761593      11.768666
                         12       1   21fxy2             1.761593      11.768666
                         12       1   21fxyz             1.761593      20.383928
                         12       1   21fxz2             1.761593      11.768666
                         12       1   21fy3              1.761593       5.263108
                         12       1   21fy2z             1.761593      11.768666
                         12       1   21fyz2             1.761593      11.768666
                         12       1   21fz3              1.761593       5.263108

                         13       1   17dx2              2.705381       9.393105
                         13       1   17dxy              2.705381      16.269335
                         13       1   17dxz              2.705381      16.269335
                         13       1   17dy2              2.705381       9.393105
                         13       1   17dyz              2.705381      16.269335
                         13       1   17dz2              2.705381       9.393105

                         14       1   22fx3              3.387848      22.923628
                         14       1   22fx2y             3.387848      51.258791
                         14       1   22fx2z             3.387848      51.258791
                         14       1   22fxy2             3.387848      51.258791
                         14       1   22fxyz             3.387848      88.782831
                         14       1   22fxz2             3.387848      51.258791
                         14       1   22fy3              3.387848      22.923628
                         14       1   22fy2z             3.387848      51.258791
                         14       1   22fyz2             3.387848      51.258791
                         14       1   22fz3              3.387848      22.923628

                         15       1   11px               3.964252       7.973364
                         15       1   11py               3.964252       7.973364
                         15       1   11pz               3.964252       7.973364

                         16       1    4s                4.101762       2.054177

                         17       1   18dx2              5.710838      34.724354
                         17       1   18dxy              5.710838      60.144345
                         17       1   18dxz              5.710838      60.144345
                         17       1   18dy2              5.710838      34.724354
                         17       1   18dyz              5.710838      60.144345
                         17       1   18dz2              5.710838      34.724354

                         18       1   12px               9.453485      23.628165
                         18       1   12py               9.453485      23.628165
                         18       1   12pz               9.453485      23.628165

                         19       1    5s               12.671038       4.786513

                         20       1   13px              22.275538      68.980343
                         20       1   13py              22.275538      68.980343
                         20       1   13pz              22.275538      68.980343

                         21       1    6s               37.465322      10.792752

                         22       1    7s              110.027825      24.212353

       Atomic covalent radius [Angstrom]:                                  0.750

       Atomic van der Waals radius [Angstrom]:                             1.550

     The atoms of this atomic kind are PAW atoms (GAPW):
       Hard Gaussian function radius:                                      1.512
       Rho0 radius:                                                        1.512
       Maximum GTO radius used for PAW projector construction:            24.566

     GAPW Soft Basis Set                                  aug-SZV-MOLOPT-ae_soft

       Number of orbital shell sets:                                           2
       Number of orbital shells:                                               6
       Number of primitive Cartesian functions:                                6
       Number of Cartesian basis functions:                                   15
       Number of spherical basis functions:                                   14
       Norm type:                                                              2

       Normalised Cartesian orbitals:

                        Set   Shell   Orbital            Exponent    Coefficient

                          1       1    1s                0.090000       0.000000
                                                         0.184684       0.048330
                                                         0.402911       0.214496
                                                         0.927724       0.168591
                                                         2.411326      -0.046594

                          1       2    2s                0.090000      -0.118940
                                                         0.184684       0.080942
                                                         0.402911      -0.164238
                                                         0.927724      -0.024406
                                                         2.411326       0.000000

                          1       3    2px               0.090000       0.000000
                                                         0.184684       0.017552
                                                         0.402911       0.194858
                                                         0.927724       0.542535
                                                         2.411326       0.744820
                          1       3    2py               0.090000       0.000000
                                                         0.184684       0.017552
                                                         0.402911       0.194858
                                                         0.927724       0.542535
                                                         2.411326       0.744820
                          1       3    2pz               0.090000       0.000000
                                                         0.184684       0.017552
                                                         0.402911       0.194858
                                                         0.927724       0.542535
                                                         2.411326       0.744820

                          1       4    3px               0.090000      -0.032237
                                                         0.184684      -0.080882
                                                         0.402911       0.112185
                                                         0.927724       1.067728
                                                         2.411326       0.000000
                          1       4    3py               0.090000      -0.032237
                                                         0.184684      -0.080882
                                                         0.402911       0.112185
                                                         0.927724       1.067728
                                                         2.411326       0.000000
                          1       4    3pz               0.090000      -0.032237
                                                         0.184684      -0.080882
                                                         0.402911       0.112185
                                                         0.927724       1.067728
                                                         2.411326       0.000000

                          1       5    3dx2              0.090000      -0.010633
                                                         0.184684      -0.050923
                                                         0.402911       0.103346
                                                         0.927724      -0.777682
                                                         2.411326       0.000000
                          1       5    3dxy              0.090000      -0.018417
                                                         0.184684      -0.088201
                                                         0.402911       0.179000
                                                         0.927724      -1.346985
                                                         2.411326       0.000000
                          1       5    3dxz              0.090000      -0.018417
                                                         0.184684      -0.088201
                                                         0.402911       0.179000
                                                         0.927724      -1.346985
                                                         2.411326       0.000000
                          1       5    3dy2              0.090000      -0.010633
                                                         0.184684      -0.050923
                                                         0.402911       0.103346
                                                         0.927724      -0.777682
                                                         2.411326       0.000000
                          1       5    3dyz              0.090000      -0.018417
                                                         0.184684      -0.088201
                                                         0.402911       0.179000
                                                         0.927724      -1.346985
                                                         2.411326       0.000000
                          1       5    3dz2              0.090000      -0.010633
                                                         0.184684      -0.050923
                                                         0.402911       0.103346
                                                         0.927724      -0.777682
                                                         2.411326       0.000000

                          2       1    1s                2.896652       0.206248

     AE Potential information for                                            ALL

       Description:                                       All-electron potential
                                          Krack, Parrinello, PCCP 2, 2105 (2000)

       Gaussian exponent of the core charge distribution:               5.979100
       Electronic configuration (s p d ...):                           4   3   0

  3. Atomic kind: C                                     Number of atoms:       8

     Orbital Basis Set                                         aug-SZV-MOLOPT-ae

       Number of orbital shell sets:                                           2
       Number of orbital shells:                                               6
       Number of primitive Cartesian functions:                               13
       Number of Cartesian basis functions:                                   15
       Number of spherical basis functions:                                   14
       Norm type:                                                              2

       Normalised Cartesian orbitals:

                        Set   Shell   Orbital            Exponent    Coefficient

                          1       1    2s                0.070000       0.000000
                                                         0.143687       0.040037
                                                         0.313471       0.177689
                                                         0.721783       0.139661
                                                         1.876046      -0.038599
                                                         6.036200      -0.128975
                                                        30.497239      -0.122578

                          1       2    3s                0.070000      -0.142268
                                                         0.143687       0.288819
                                                         0.313471       0.010360
                                                         0.721783       0.175994
                                                         1.876046       0.000000
                                                         6.036200       0.000000
                                                        30.497239       0.000000

                          1       3    3px               0.070000       0.000000
                                                         0.143687       0.012825
                                                         0.313471       0.142381
                                                         0.721783       0.396426
                                                         1.876046       0.544234
                                                         6.036200       0.508157
                                                        30.497239       0.384077
                          1       3    3py               0.070000       0.000000
                                                         0.143687       0.012825
                                                         0.313471       0.142381
                                                         0.721783       0.396426
                                                         1.876046       0.544234
                                                         6.036200       0.508157
                                                        30.497239       0.384077
                          1       3    3pz               0.070000       0.000000
                                                         0.143687       0.012825
                                                         0.313471       0.142381
                                                         0.721783       0.396426
                                                         1.876046       0.544234
                                                         6.036200       0.508157
                                                        30.497239       0.384077

                          1       4    4px               0.070000       0.076505
                                                         0.143687      -0.086104
                                                         0.313471       0.010230
                                                         0.721783       0.129894
                                                         1.876046       0.000000
                                                         6.036200       0.000000
                                                        30.497239       0.000000
                          1       4    4py               0.070000       0.076505
                                                         0.143687      -0.086104
                                                         0.313471       0.010230
                                                         0.721783       0.129894
                                                         1.876046       0.000000
                                                         6.036200       0.000000
                                                        30.497239       0.000000
                          1       4    4pz               0.070000       0.076505
[...]
 mp_sum_d                          4771  6.7    2.631    2.848    2.631    2.848
 compute_GW_self_energy_deep        100  8.0    1.055    1.071    2.794    2.839
 mp_alltoall_d11v                  1616  9.6    1.643    2.541    1.643    2.541
 mp_sync                            827  9.5    1.357    2.435    1.357    2.435
 powell_optimize                1529738 11.0    2.198    2.340    2.198    2.340
 calc_screening_functions             1 10.0    0.779    0.797    1.992    2.049
 integrate_vhg0_rspace               77  8.0    0.074    0.098    1.962    1.970
 calculate_vxc_atom                  77  8.0    0.049    0.157    1.915    1.916
 mp2_ri_gpw_compute_in                1  5.0    0.000    0.001    1.847    1.847
 xc_functional_eval                 532 10.7    0.001    0.001    1.213    1.803
 pbe_lda_eval                       532 11.7    1.213    1.802    1.213    1.802
 mp2_ri_gpw_compute_in_loop           1  6.0    0.000    0.000    1.788    1.788
 gaVxcgb_GC                         228  9.0    0.097    1.687    0.097    1.687
 create_hermitian_form_of_ABBA        1  8.0    0.000    0.000    1.671    1.674
 contract_B_L                         4  7.0    0.002    0.002    1.420    1.608
 calc_pair_dist_radii                 1 10.0    0.505    0.512    1.490    1.578
 mp2_eri_3c_integrate                 1  7.0    0.002    0.003    0.309    1.563
 integrate_set_3c                  4008  8.0    0.278    1.478    0.307    1.560
 mp_cart_create                     669  9.8    1.295    1.484    1.296    1.484
 dbt_pgrid_create_expert             84 10.8    0.000    0.000    1.274    1.461
 diagonalize_C                        1  8.0    0.000    0.000    1.442    1.443
 cp_fm_power                          2  7.5    0.035    0.040    1.380    1.387
 mp_waitall_1                     37938 12.0    1.019    1.375    1.019    1.375
 transfer_pw2rs_30                   77 12.0    0.697    0.708    1.228    1.327
 calculate_rho_atom                 385  9.0    0.550    1.258    0.550    1.258
 qs_scf_new_mos                      76  5.0    0.001    0.001    1.097    1.135
 pw_scatter_p                       841 12.1    1.056    1.104    1.056    1.104
 transfer_rs2pw_90                   77  9.0    0.168    0.191    0.854    1.037
 transfer_rs2pw_30                   77  9.0    0.305    0.320    0.968    0.999
 rpa_num_int_RPA_matrix_operati     100  7.0    0.001    0.003    0.928    0.929
 pw_derive                          687 11.3    0.879    0.903    0.879    0.903
 mp_sum_dm                         4470  7.7    0.807    0.875    0.807    0.875
 mp_sum_dv                        10901 10.3    0.809    0.870    0.809    0.870
 mp_sendrecv_dv                   12166 10.0    0.820    0.859    0.820    0.859
 transfer_pw2rs_90                   77 12.0    0.147    0.178    0.688    0.819
 pw_copy                           1150 10.6    0.770    0.796    0.770    0.796
 pw_gather_p                        767 11.8    0.767    0.794    0.767    0.794
 eigensolver_symm                    77  6.0    0.005    0.006    0.767    0.769
 cp2k_distribution_to_z_slices       77  9.0    0.281    0.320    0.722    0.766
 rs_gather_matrices                  77 10.0    0.002    0.004    0.527    0.617
 calc_mat_Q                         100  8.0    0.000    0.000    0.595    0.610
 contract_S_to_Q                    100  9.0    0.000    0.000    0.592    0.607
 grid_integrate_task_list            77 10.0    0.104    0.593    0.104    0.593
 rs_grid_zero                       387 11.2    0.548    0.560    0.548    0.560
 pw_copy_to_array                   767 11.8    0.437    0.550    0.437    0.550
 compute_vec_Sigma_x_minus_vxc_       1  4.0    0.000    0.000    0.546    0.546
 fft_wrap_pw1pw2_90                 154 10.5    0.023    0.024    0.488    0.513
 pw_poisson_set                      78  8.9    0.001    0.001    0.504    0.510
 cp_fm_cholesky_invert              101  8.0    0.471    0.481    0.471    0.481
 pw_copy_from_array                 841 12.1    0.380    0.473    0.380    0.473
 mp_isend_dv                      13362 11.8    0.200    0.459    0.200    0.459
 pw_integral_ab_c1d_c1d_gs           77  9.0    0.334    0.337    0.389    0.406
 qs_energies_init_hamiltonians        1  3.0    0.000    0.000    0.350    0.350
 build_core_hamiltonian_matrix        1  4.0    0.000    0.000    0.348    0.348
 overlap_condnum                      1  5.0    0.000    0.000    0.345    0.347
 cp_fm_cholesky_decompose           102  9.0    0.325    0.338    0.325    0.338
 pw_axpy                            765  9.3    0.326    0.336    0.326    0.336
 pw_poisson_rebuild                  77  9.0    0.000    0.000    0.317    0.328
 ps_wavelet_create                    1 10.0    0.000    0.000    0.317    0.328
 RS_z_slice_distribution              1 11.0    0.251    0.272    0.317    0.328
 arnoldi_conjugate_gradient           5  6.0    0.007    0.009    0.318    0.318
 compute_Erpa_by_freq_int           100  8.0    0.001    0.002    0.310    0.310
 calculate_rho_atom_coeff            77  6.0    0.040    0.046    0.305    0.306
 transfer_pw2rs_10                   77 12.0    0.122    0.128    0.248    0.256
 mp_sum_l                          1181  6.7    0.185    0.255    0.185    0.255
 transfer_rs2pw_10                   77  9.0    0.076    0.079    0.232    0.251
 integrate_four_center_load          77 10.0    0.000    0.000    0.182    0.246
 hfx_load_balance                     1 11.0    0.000    0.000    0.182    0.246
 calculate_dm_sparse                 76  6.0    0.000    0.000    0.208    0.245
 cp_dbcsr_plus_fm_fm_t               76  7.0    0.001    0.001    0.207    0.245
 init_scf_run                         1  3.0    0.000    0.000    0.239    0.239
 Vh_1c_gg_integrals                  77  8.0    0.015    0.157    0.227    0.234
 dbcsr_multiply_generic             185  8.0    0.004    0.004    0.195    0.234
 scf_env_initial_rho_setup            1  4.0    0.000    0.000    0.227    0.227
 hfx_load_balance_range               1 12.0    0.000    0.000    0.145    0.210
 pw_zero                            458 10.3    0.197    0.210    0.197    0.210
 mp2_main_alloc_hfx                   1  4.0    0.118    0.207    0.118    0.207
 dbcsr_sym_matrix_vector_mult      2155  7.0    0.016    0.017    0.185    0.192
 qs_init_subsys                       1  2.0    0.002    0.002    0.188    0.189
 qs_env_setup                         1  3.0    0.000    0.000    0.183    0.184
 qs_env_rebuild_pw_env                2  3.5    0.000    0.000    0.182    0.183
 pw_env_rebuild                       1  5.0    0.000    0.000    0.182    0.183
 mp_sum_i                            19  9.5    0.089    0.180    0.089    0.180
 restraint_control                    1  2.0    0.000    0.000    0.089    0.180
 copy_dbcsr_to_fm                   139  6.8    0.002    0.002    0.158    0.175
 dbcsr_complete_redistribute        295  8.5    0.011    0.013    0.165    0.169
 mp_isend_dm3                      2784 11.5    0.039    0.166    0.039    0.166
 create_qs_kind_set                   1  2.0    0.000    0.000    0.160    0.160
 read_qs_kind                         5  3.0    0.073    0.094    0.160    0.160
 pw_grid_setup                        4  6.0    0.000    0.000    0.153    0.154
 pw_grid_setup_internal               4  7.0    0.002    0.003    0.153    0.154
 update_ks_atom                      77  8.0    0.033    0.054    0.127    0.150
 mp_irecv_dv                      13286 11.8    0.013    0.138    0.013    0.138
 dbt_total                            8  8.0    0.000    0.000    0.137    0.137
 mp_bcast_b_src                     159  7.5    0.119    0.136    0.119    0.136
 fft_wrap_pw1pw2_30                 154 10.5    0.004    0.004    0.131    0.135
 multiply_cannon                    185  9.0    0.008    0.008    0.086    0.133
 mp_comm_split_direct                48 14.5    0.116    0.130    0.116    0.130
 cp_fm_to_fm_submat_general         112 10.1    0.111    0.128    0.111    0.128
 mp2_main_free_hfx                    1  4.0    0.017    0.124    0.017    0.124
 dbt_contract                         4  9.0    0.000    0.000    0.122    0.123
 mp_max_i                           658  2.9    0.104    0.122    0.104    0.122
 cp_fm_syrk                           3  7.0    0.120    0.122    0.120    0.122
 fm_general_add_bse                   5 10.2    0.000    0.000    0.114    0.120
 external_control                    77  5.0    0.002    0.114    0.117    0.117
 calculate_rho0_atom                385  9.0    0.115    0.116    0.115    0.116
 dbcsr_add_d                       3294  7.0    0.001    0.002    0.020    0.114
 multiply_cannon_loop               185 10.0    0.005    0.006    0.066    0.114
 create_B                             1  8.0    0.000    0.000    0.107    0.113
 pw_grid_sort                         4  8.0    0.080    0.081    0.109    0.113
 dbcsr_add_anytype                 3294  8.0    0.003    0.014    0.019    0.113
 create_A                             1  8.0    0.002    0.006    0.106    0.111
 mp_bcast_dm                       2926  9.0    0.094    0.103    0.094    0.103
 cp_fm_uplo_to_full                 186  8.4    0.066    0.094    0.066    0.094
 dbt_tas_multiply                     8 11.5    0.000    0.000    0.092    0.092
 copy_fm_to_dbcsr                   156  8.1    0.000    0.000    0.088    0.092
 dbt_tas_total                        8 12.5    0.000    0.003    0.092    0.092
 dbcsr_desymmetrize_deep            141  7.8    0.003    0.003    0.075    0.092
 parser_read_line                 32774  4.0    0.005    0.005    0.087    0.088
 parser_read_line_low                49  5.0    0.002    0.025    0.082    0.083
 multiply_cannon_metrocomm3        1724 11.1    0.002    0.002    0.030    0.083
 broadcast_input_information         49  6.0    0.008    0.008    0.080    0.082
 abc_contract                      4008  9.0    0.029    0.081    0.029    0.081
 write_mo_set_to_restart             76  5.0    0.002    0.070    0.058    0.078
 dbcsr_finalize                    5314 10.7    0.006    0.020    0.028    0.076
 dbcsr_col_vec_to_rep_row          2155  8.0    0.007    0.008    0.066    0.076
 scale_and_distribute               154 10.0    0.060    0.075    0.060    0.075
 make_m2s                           370  9.0    0.003    0.003    0.068    0.070
 create_integ_mat                     4  6.0    0.001    0.001    0.068    0.070
 fft_wrap_pw1pw2_10                 154 10.5    0.001    0.001    0.066    0.068
 array2fm                             4  7.0    0.000    0.000    0.063    0.067
 mp_alltoall_i11v                  1026  9.4    0.066    0.066    0.066    0.066
 mp_isendrecv_dv                  24332 12.0    0.035    0.066    0.035    0.066
 pw_scale                           305  9.5    0.041    0.065    0.041    0.065
 postprocess_bse                      1  9.0    0.000    0.000    0.062    0.063
 vxc_of_r_new                       456  9.0    0.001    0.010    0.005    0.062
 self_consistency_check              76  5.0    0.000    0.000    0.040    0.059
 mp_alltoall_i22                    436  9.3    0.041    0.059    0.041    0.059
 cp_sm_mix                           76  6.0    0.000    0.000    0.040    0.059
 mp_max_d                            78  6.9    0.039    0.059    0.039    0.059
 get_2c_integrals                     1  6.0    0.000    0.000    0.057    0.059
 dbcsr_rep_row_to_rep_col_vec      2155  8.0    0.006    0.006    0.038    0.058
 write_mo_set_low                     4  6.0    0.000    0.000    0.057    0.057
 cp_fm_write_unformatted              4  7.0    0.057    0.057    0.057    0.057
 mp_bcast_i_src                     196  7.0    0.053    0.057    0.053    0.057
 dbt_tas_dbm                          8 13.5    0.000    0.000    0.055    0.055
 mp_bcast_dv                       2155  9.0    0.042    0.050    0.042    0.050
 scf_post_calculation_gpw             1  3.0    0.000    0.000    0.049    0.049
 write_available_results              1  4.0    0.000    0.000    0.049    0.049
 write_mo_free_results                1  5.0    0.004    0.005    0.049    0.049
 dbt_tas_mm_1N                        8 14.5    0.000    0.000    0.040    0.049
 dbm_multiply                         8 15.5    0.040    0.049    0.040    0.049
 mp_rank_compare                   1608 12.9    0.046    0.048    0.046    0.048
 cp_fm_symm                          77  7.0    0.042    0.046    0.042    0.046
 dbcsr_iterator_start             28627  8.9    0.022    0.032    0.026    0.042
 compute_2c_integrals                 1  7.0    0.000    0.000    0.027    0.041
 fm_general_add_bse_1_setup           5 11.2    0.037    0.040    0.037    0.040
 make_images                        370 10.0    0.008    0.008    0.037    0.040
 integrate_four_center_dist_KS       77 10.0    0.006    0.007    0.038    0.039
 mp_irecv_dm3                      2784 11.5    0.007    0.038    0.007    0.038
 multiply_cannon_metrocomm1        1724 11.1    0.001    0.001    0.005    0.038
 rs_scatter_matrices                 77  7.0    0.001    0.001    0.036    0.037
 integrate_four_center_getP          77 10.0    0.006    0.007    0.033    0.035
 dbcsr_merge_all                   4231 11.4    0.009    0.027    0.014    0.035
 dbt_copy                            12 10.0    0.000    0.000    0.030    0.033
 sort_shells                          4  9.0    0.029    0.033    0.029    0.033
 Q_trace_and_add_unit_matrix        100  8.0    0.000    0.001    0.023    0.032
 hfx_load_balance_redist              1 12.0    0.003    0.003    0.031    0.031
 multiply_cannon_metrocomm4        1539 11.1    0.002    0.003    0.006    0.031
 cholesky_decomp                      1  7.0    0.000    0.000    0.017    0.031
 array2fm_info                        4  8.0    0.029    0.031    0.029    0.031
 hybrid_alltoall_any                511 11.2    0.005    0.007    0.029    0.030
 mult_B_with_W                        1  8.0    0.000    0.000    0.029    0.030
 dbcsr_copy                        9563  7.7    0.016    0.019    0.027    0.030
 get_oscillator_strengths             1 10.0    0.000    0.000    0.030    0.030
 mp_isendrecv_lv                    158 13.0    0.002    0.027    0.002    0.027
 mixing_init                          1  5.0    0.026    0.027    0.027    0.027
 get_multipoles_mo                    1 10.0    0.000    0.000    0.026    0.027
 compute_max_radius                   1  6.0    0.025    0.027    0.025    0.027
 dbcsr_work_create                 5066 10.6    0.005    0.017    0.008    0.026
 fm_general_add_bse_5_comm_buff       5 11.2    0.000    0.000    0.018    0.026
 communicate_buffer                   5 12.2    0.000    0.000    0.018    0.026
 fm_general_add_bse_4_buf_from_       1 10.0    0.022    0.025    0.022    0.025
 dbt_tas_estimate_result_nze          4 12.0    0.001    0.003    0.022    0.024
 xc_pw_smooth                        76 10.0    0.000    0.000    0.022    0.024
 dbt_reshape                          8 11.5    0.004    0.004    0.021    0.024
 fm_general_add_bse_4_buf_from_       1 10.0    0.022    0.023    0.022    0.023
 hirshfeld_integration                1  6.0    0.001    0.007    0.023    0.023
 array2fm_buffer_send                 4  8.0    0.020    0.023    0.020    0.023
 offload_free_buffer                 85  8.4    0.014    0.022    0.014    0.022
 mp_bcast_am_src                     49  7.0    0.018    0.021    0.019    0.022
 mp_maxloc_dv                      1511  1.0    0.018    0.021    0.018    0.021
 dbt_distribution_new_expert         76 10.1    0.001    0.001    0.020    0.021
 dbcsr_work_destroy_all            5066 11.5    0.005    0.014    0.006    0.020
 dbcsr_crop_matrix                  456 10.0    0.002    0.002    0.019    0.020
 dbcsr_iterator_stop              28627  8.9    0.013    0.017    0.015    0.020
 cp_fm_redistribute_start            82  8.0    0.000    0.000    0.012    0.020
 dbcsr_create_new                 12933  9.1    0.014    0.015    0.019    0.020
 dbt_remap                            8 10.0    0.001    0.001    0.019    0.020
 calculate_hirshfeld_normalizat       1  6.0    0.001    0.007    0.018    0.019
 dbt_tas_distribution_new            92 11.7    0.010    0.010    0.018    0.018
 multiply_cannon_multrec           1724 11.1    0.015    0.017    0.015    0.017
 mp_sum_iv                          227  9.9    0.013    0.017    0.013    0.017
 dbt_communicate_buffer               8 12.5    0.000    0.000    0.015    0.017
 array2fm_fill                        4  8.0    0.004    0.005    0.010    0.017
 mp_waitall_2                        48 15.8    0.012    0.017    0.012    0.017
 ao_to_mo_and_store_B_mult_bse_      13  7.0    0.000    0.000    0.012    0.016
 dbcsr_copy_submatrix               456 11.0    0.002    0.002    0.014    0.016
 mp_cart_sub                        282  8.8    0.016    0.016    0.016    0.016
 pw_grid_remap                        4  8.0    0.003    0.003    0.013    0.015
 ao_to_mo_and_store_B_mult_gw_1      13  7.0    0.000    0.000    0.013    0.015
 cp_dbcsr_sm_fm_multiply              3 11.0    0.000    0.000    0.015    0.015
 dbt_split_blocks_generic            20  8.8    0.003    0.003    0.014    0.014
 create_fast_col_vec_access        4310  8.0    0.008    0.010    0.013    0.014
 dbcsr_data_release               82678 10.5    0.008    0.014    0.008    0.014
 pw_grid_assign                       4  8.0    0.012    0.013    0.014    0.014
 make_images_sizes                  370 11.0    0.000    0.000    0.011    0.014
 mp_alltoall_i44                    370 12.0    0.011    0.013    0.011    0.013
 mp_bcast_av                        756  1.0    0.004    0.006    0.010    0.013
 dbcsr_data_new                   49594 11.0    0.007    0.013    0.007    0.013
 create_fast_row_vec_access        4310  8.0    0.008    0.008    0.012    0.013
 ao_to_mo_and_store_B_mult_1         13  7.0    0.000    0.000    0.010    0.013
 mp_sum_im3                           4  9.0    0.011    0.013    0.011    0.013
 mp_wait                             94  9.0    0.006    0.012    0.006    0.012
 dbcsr_sym_matrix_vector_mult_l    2155  8.0    0.005    0.007    0.009    0.012
 cp_fm_create                       225  7.4    0.008    0.011    0.008    0.011
 dbt_tas_replicate                    8 13.5    0.004    0.004    0.010    0.011
 dbt_tas_create_split                44 13.2    0.000    0.000    0.011    0.011
 dbt_tas_create_split_rows_or_c      44 14.2    0.000    0.000    0.011    0.011
 make_images_data                   370 11.0    0.002    0.003    0.009    0.011
 dbt_create_new                      40  9.5    0.000    0.000    0.011    0.011
 dbcsr_iterator_seek              28627  9.9    0.004    0.011    0.004    0.011
 dbcsr_scale_anytype               3295  9.0    0.003    0.003    0.008    0.010
 truncate_BSE_matrices                1  8.0    0.000    0.000    0.009    0.010
 mp_sum_im                         4017 13.0    0.008    0.010    0.008    0.010
 hfx_create                           1  2.0    0.009    0.009    0.009    0.010
 -------------------------------------------------------------------------------

 The number of warnings for this run is : 1
 
 -------------------------------------------------------------------------------
  **** **** ******  **  PROGRAM ENDED AT                 2025-05-05 03:42:34.780
 ***** ** ***  *** **   PROGRAM RAN ON                                  n2cn0401
 **    ****   ******    PROGRAM RAN BY                                  metdyn02
 ***** **    ** ** **   PROGRAM PROCESS ID                               1086689
  **** **  *******  **  PROGRAM STOPPED IN /scratch/hpc-prf-metdyn/metdyn02_Remi
                                           /10_MOL/05_MOL/aUKBqsEOTmq69kFe5R_nOg
                                           /5k_set_final_qzvp/VIDZIR/SZV/GW+BSE/
                                           RILIM
