 DBCSR| CPU Multiplication driver                                           BLAS (U)
 DBCSR| Multrec recursion limit                                              512 (U)
 DBCSR| Multiplication stack size                                           1000 (D)
 DBCSR| Maximum elements for images                                    UNLIMITED (U)
 DBCSR| Multiplicative factor virtual images                                   1 (U)
 DBCSR| Use multiplication densification                                       T (D)
 DBCSR| Multiplication size stacks                                             3 (U)
 DBCSR| Use memory pool for CPU allocation                                     F (U)
 DBCSR| Number of 3D layers                                               SINGLE (U)
 DBCSR| Use MPI memory allocation                                              F (U)
 DBCSR| Use RMA algorithm                                                      F (U)
 DBCSR| Use Communication thread                                               T (U)
 DBCSR| Communication thread load                                             75 (D)
 DBCSR| MPI: My process id                                                     0
 DBCSR| MPI: Number of processes                                             216
 DBCSR| OMP: Current number of threads                                         4
 DBCSR| OMP: Max number of threads                                             4
 DBCSR| Split modifier for TAS multiplication algorithm                  1.0E+00 (U)


  **** **** ******  **  PROGRAM STARTED AT               2025-03-29 08:14:42.385
 ***** ** ***  *** **   PROGRAM STARTED ON                          i01r11c03s09
 **    ****   ******    PROGRAM STARTED BY                               di38fab
 ***** **    ** ** **   PROGRAM PROCESS ID                                392643
  **** **  *******  **  PROGRAM STARTED IN /hppfs/scratch/04/di38fab/07_MOL_non_
                                           aug/05_MOL_non_aug/05_MOL/aUKBqsEOTmq
                                           69kFe5R_nOg/5k_set_final_qzvp/HIYNUY/
                                           TZVPP/GW+BSE

 CP2K| version string:                 CP2K version 2025.1 (Development Version)
 CP2K| source code revision number:                                  git:d2e611a
 CP2K| cp2kflags: omp libint fftw3 libxc parallel scalapack max_contr=4         
 CP2K| is freely available from                            https://www.cp2k.org/
 CP2K| Program compiled at                       Thu 06 Mar 2025 05:09:20 PM CET
 CP2K| Program compiled on                                               login02
 CP2K| Program compiled for                                        Supermuc-foss
 CP2K| Data directory path                  /hppfs/work/pn36zo/di38fab/cp2k/data
 CP2K| Input file name                                                    GW.inp

 GLOBAL| Force Environment number                                              1
 GLOBAL| Basis set file name            /hppfs/scratch/04/di38fab/04_TMD/BASIS_A
 GLOBAL| Potential file name            /hppfs/work/pn36zo/di38fab/cp2k/data/ALL
 GLOBAL| MM Potential file name                                     MM_POTENTIAL
 GLOBAL| Coordinate file name                                      __STD_INPUT__
 GLOBAL| Method name                                                        CP2K
 GLOBAL| Project name                                                       MoS2
 GLOBAL| Run type                                                         ENERGY
 GLOBAL| FFT library                                                       FFTW3
 GLOBAL| Diagonalization library                                       ScaLAPACK
 GLOBAL| DGEMM library                                                      BLAS
 GLOBAL| Orthonormality check for eigenvectors                          DISABLED
 GLOBAL| Matrix multiplication library                                 ScaLAPACK
 GLOBAL| All-to-all communication in single precision                          F
 GLOBAL| FFTs using library dependent lengths                                  F
 GLOBAL| Grid backend                                                       AUTO
 GLOBAL| Global print level                                               MEDIUM
 GLOBAL| MPI I/O enabled                                                       T
 GLOBAL| Total number of message passing processes                           216
 GLOBAL| Number of threads for this process                                    4
 GLOBAL| This output is from process                                           0
 GLOBAL| OpenMP stack size per thread (OMP_STACKSIZE)                    default
 GLOBAL| CPU model name             Intel(R) Xeon(R) Platinum 8174 CPU @ 3.10GHz

 MEMORY| system memory details [Kb]
 MEMORY|                        rank 0           min           max       average
 MEMORY| MemTotal             98436664      98436660      98436868      98436675
 MEMORY| MemFree              83819892      83613076      84169036      83936549
 MEMORY| Buffers                     0             0             0             0
 MEMORY| Cached                2627300       2396540       2627300       2482101
 MEMORY| Slab                  1258032       1220688       1275144       1251705
 MEMORY| SReclaimable           280584        274144        289604        281613
 MEMORY| MemLikelyFree        86727776      86514560      86840688      86700264


 *** Fundamental physical constants (SI units) ***

 *** Literature: B. J. Mohr and B. N. Taylor,
 ***             CODATA recommended values of the fundamental physical
 ***             constants: 2006, Web Version 5.1
 ***             http://physics.nist.gov/constants

 Speed of light in vacuum [m/s]                             2.99792458000000E+08
 Magnetic constant or permeability of vacuum [N/A**2]       1.25663706143592E-06
 Electric constant or permittivity of vacuum [F/m]          8.85418781762039E-12
 Planck constant (h) [J*s]                                  6.62606896000000E-34
 Planck constant (h-bar) [J*s]                              1.05457162825177E-34
 Elementary charge [C]                                      1.60217648700000E-19
 Electron mass [kg]                                         9.10938215000000E-31
 Electron g factor [ ]                                     -2.00231930436220E+00
 Proton mass [kg]                                           1.67262163700000E-27
 Fine-structure constant                                    7.29735253760000E-03
 Rydberg constant [1/m]                                     1.09737315685270E+07
 Avogadro constant [1/mol]                                  6.02214179000000E+23
 Boltzmann constant [J/K]                                   1.38065040000000E-23
 Atomic mass unit [kg]                                      1.66053878200000E-27
 Bohr radius [m]                                            5.29177208590000E-11

 *** Conversion factors ***

 [u] -> [a.u.]                                              1.82288848426455E+03
 [Angstrom] -> [Bohr] = [a.u.]                              1.88972613288564E+00
 [a.u.] = [Bohr] -> [Angstrom]                              5.29177208590000E-01
 [a.u.] -> [s]                                              2.41888432650478E-17
 [a.u.] -> [fs]                                             2.41888432650478E-02
 [a.u.] -> [J]                                              4.35974393937059E-18
 [a.u.] -> [N]                                              8.23872205491840E-08
 [a.u.] -> [K]                                              3.15774647902944E+05
 [a.u.] -> [kJ/mol]                                         2.62549961709828E+03
 [a.u.] -> [kcal/mol]                                       6.27509468713739E+02
 [a.u.] -> [Pa]                                             2.94210107994716E+13
 [a.u.] -> [bar]                                            2.94210107994716E+08
 [a.u.] -> [atm]                                            2.90362800883016E+08
 [a.u.] -> [eV]                                             2.72113838565563E+01
 [a.u.] -> [Hz]                                             6.57968392072181E+15
 [a.u.] -> [1/cm] (wave numbers)                            2.19474631370540E+05
 [a.u./Bohr**2] -> [1/cm]                                   5.14048714338585E+03
 

 CELL_TOP| Volume [angstrom^3]:                                     27000.000000
 CELL_TOP| Vector a [angstrom    30.000     0.000     0.000   |a| =    30.000000
 CELL_TOP| Vector b [angstrom     0.000    30.000     0.000   |b| =    30.000000
 CELL_TOP| Vector c [angstrom     0.000     0.000    30.000   |c| =    30.000000
 CELL_TOP| Angle (b,c), alpha [degree]:                                90.000000
 CELL_TOP| Angle (a,c), beta  [degree]:                                90.000000
 CELL_TOP| Angle (a,b), gamma [degree]:                                90.000000
 CELL_TOP| Numerically orthorhombic:                                         YES
 CELL_TOP| Periodicity                                                      NONE

 GENERATE|  Preliminary Number of Bonds generated:                             0
 GENERATE|  Achieved consistency in connectivity generation.

 CELL| Volume [angstrom^3]:                                         27000.000000
 CELL| Vector a [angstrom]:      30.000     0.000     0.000   |a| =    30.000000
 CELL| Vector b [angstrom]:       0.000    30.000     0.000   |b| =    30.000000
 CELL| Vector c [angstrom]:       0.000     0.000    30.000   |c| =    30.000000
 CELL| Angle (b,c), alpha [degree]:                                    90.000000
 CELL| Angle (a,c), beta  [degree]:                                    90.000000
 CELL| Angle (a,b), gamma [degree]:                                    90.000000
 CELL| Numerically orthorhombic:                                             YES
 CELL| Periodicity                                                          NONE

 CELL_REF| Volume [angstrom^3]:                                     27000.000000
 CELL_REF| Vector a [angstrom    30.000     0.000     0.000   |a| =    30.000000
 CELL_REF| Vector b [angstrom     0.000    30.000     0.000   |b| =    30.000000
 CELL_REF| Vector c [angstrom     0.000     0.000    30.000   |c| =    30.000000
 CELL_REF| Angle (b,c), alpha [degree]:                                90.000000
 CELL_REF| Angle (a,c), beta  [degree]:                                90.000000
 CELL_REF| Angle (a,b), gamma [degree]:                                90.000000
 CELL_REF| Numerically orthorhombic:                                         YES
 CELL_REF| Periodicity                                                      NONE

 *******************************************************************************
 *******************************************************************************
 **                                                                           **
 **     #####                         ##              ##                      **
 **    ##   ##            ##          ##              ##                      **
 **   ##     ##                       ##            ######                    **
 **   ##     ##  ##   ##  ##   #####  ##  ##   ####   ##    #####    #####    **
 **   ##     ##  ##   ##  ##  ##      ## ##   ##      ##   ##   ##  ##   ##   **
 **   ##  ## ##  ##   ##  ##  ##      ####     ###    ##   ######   ######    **
 **    ##  ###   ##   ##  ##  ##      ## ##      ##   ##   ##       ##        **
 **     #######   #####   ##   #####  ##  ##  ####    ##    #####   ##        **
 **           ##                                                    ##        **
 **                                                                           **
 **                                                ... make the atoms dance   **
 **                                                                           **
 **            Copyright (C) by CP2K developers group (2000-2025)             **
 **                      J. Chem. Phys. 152, 194103 (2020)                    **
 **                                                                           **
 *******************************************************************************

 DFT| Spin restricted Kohn-Sham (RKS) calculation                            RKS
 DFT| Multiplicity                                                             1
 DFT| Number of spin states                                                    1
 DFT| Charge                                                                   0
 DFT| Self-interaction correction (SIC)                                       NO
 DFT| Cutoffs: density                                              1.000000E-10
 DFT|          gradient                                             1.000000E-10
 DFT|          tau                                                  1.000000E-10
 DFT|          cutoff_smoothing_range                               0.000000E+00
 DFT| XC density smoothing                                                  NONE
 DFT| XC derivatives                                                          PW

 FUNCTIONAL| PBE:
 FUNCTIONAL| J.P.Perdew, K.Burke, M.Ernzerhof, Phys. Rev. Letter, vol. 77, n 18,
 FUNCTIONAL|  pp. 3865-3868, (1996)sx=0.750sc=1.000{spin unpolarized}           


 QS| Method:                                                                GAPW
 QS| Density plane wave grid type                        NON-SPHERICAL FULLSPACE
 QS| Number of grid levels:                                                    4
 QS| Density cutoff [a.u.]:                                                250.0
 QS| Multi grid cutoff [a.u.]: 1) grid level                               250.0
 QS|                           2) grid level                                83.3
 QS|                           3) grid level                                27.8
 QS|                           4) grid level                                 9.3
 QS| Grid level progression factor:                                          3.0
 QS| Relative density cutoff [a.u.]:                                        50.0
 QS| Interaction thresholds: eps_pgf_orb:                                1.0E-12
 QS|                         eps_filter_matrix:                          0.0E+00
 QS|                         eps_core_charge:                            1.0E-14
 QS|                         eps_rho_gspace:                             1.0E-12
 QS|                         eps_rho_rspace:                             1.0E-12
 QS|                         eps_gvg_rspace:                             1.0E-06
 QS|                         eps_ppl:                                    1.0E-02
 QS|                         eps_ppnl:                                   1.0E-08
 QS| GAPW|      One center basis from orbital basis primitives
 QS| GAPW|                   eps_fit:                                    1.0E-04
 QS| GAPW|                   eps_iso:                                    1.0E-12
 QS| GAPW|                   eps_svd:                                    1.0E-08
 QS| GAPW|                   eps_cpc:                                    1.0E-12
 QS| GAPW|   atom-r-grid: quadrature:                                     GC_LOG
 QS| GAPW|      atom-s-grid:  max l :                                          6
 QS| GAPW|      max_l_rho0 :                                                   2


 ATOMIC KIND INFORMATION

  1. Atomic kind: C                                     Number of atoms:       4

     Orbital Basis Set                                       TZVPP-MOLOPT-GGA-ae

       Number of orbital shell sets:                                           2
       Number of orbital shells:                                              11
       Number of primitive Cartesian functions:                               12
       Number of Cartesian basis functions:                                   36
       Number of spherical basis functions:                                   31
       Norm type:                                                              2

       Normalised Cartesian orbitals:

                        Set   Shell   Orbital            Exponent    Coefficient

                          1       1    1s               34.417212       0.637474
                                                         6.739673       1.752510
                                                         2.441624       0.446183
                                                         0.806764       0.003692
                                                         0.283960       0.027513
                                                         0.097098       0.019281

                          1       2    2s               34.417212       1.102934
                                                         6.739673      -0.288836
                                                         2.441624      -0.104551
                                                         0.806764       0.362633
                                                         0.283960       0.094997
                                                         0.097098       0.029117

                          1       3    3s               34.417212      -6.120053
                                                         6.739673      -0.168746
                                                         2.441624      -0.199197
                                                         0.806764      -0.252838
                                                         0.283960       0.169545
                                                         0.097098       0.047046

                          1       4    4s               34.417212      -3.786931
                                                         6.739673      -0.401007
                                                         2.441624      -0.053941
                                                         0.806764       0.091223
                                                         0.283960      -0.341415
                                                         0.097098       0.188374

                          1       5    2px              34.417212       2.016536
                                                         6.739673       2.243109
                                                         2.441624       0.695625
                                                         0.806764       0.779023
                                                         0.283960       0.032186
                                                         0.097098       0.005087
                          1       5    2py              34.417212       2.016536
                                                         6.739673       2.243109
                                                         2.441624       0.695625
                                                         0.806764       0.779023
                                                         0.283960       0.032186
                                                         0.097098       0.005087
                          1       5    2pz              34.417212       2.016536
                                                         6.739673       2.243109
                                                         2.441624       0.695625
                                                         0.806764       0.779023
                                                         0.283960       0.032186
                                                         0.097098       0.005087

                          1       6    3px              34.417212       1.690366
                                                         6.739673      -2.720242
                                                         2.441624       0.912249
                                                         0.806764      -0.188640
                                                         0.283960       0.294367
                                                         0.097098       0.008084
                          1       6    3py              34.417212       1.690366
                                                         6.739673      -2.720242
                                                         2.441624       0.912249
                                                         0.806764      -0.188640
                                                         0.283960       0.294367
                                                         0.097098       0.008084
                          1       6    3pz              34.417212       1.690366
                                                         6.739673      -2.720242
                                                         2.441624       0.912249
                                                         0.806764      -0.188640
                                                         0.283960       0.294367
                                                         0.097098       0.008084

                          1       7    4px              34.417212     -12.705833
                                                         6.739673       1.761645
                                                         2.441624      -0.855991
                                                         0.806764      -0.070055
                                                         0.283960      -0.017243
                                                         0.097098       0.081068
                          1       7    4py              34.417212     -12.705833
                                                         6.739673       1.761645
                                                         2.441624      -0.855991
                                                         0.806764      -0.070055
                                                         0.283960      -0.017243
                                                         0.097098       0.081068
                          1       7    4pz              34.417212     -12.705833
                                                         6.739673       1.761645
                                                         2.441624      -0.855991
                                                         0.806764      -0.070055
                                                         0.283960      -0.017243
                                                         0.097098       0.081068

                          1       8    3dx2             34.417212     174.894573
                                                         6.739673       4.248634
                                                         2.441624       3.763414
                                                         0.806764       0.546922
                                                         0.283960       0.015501
                                                         0.097098       0.001415
                          1       8    3dxy             34.417212     302.926287
                                                         6.739673       7.358850
                                                         2.441624       6.518424
                                                         0.806764       0.947296
                                                         0.283960       0.026849
                                                         0.097098       0.002451
                          1       8    3dxz             34.417212     302.926287
                                                         6.739673       7.358850
                                                         2.441624       6.518424
                                                         0.806764       0.947296
                                                         0.283960       0.026849
                                                         0.097098       0.002451
                          1       8    3dy2             34.417212     174.894573
                                                         6.739673       4.248634
                                                         2.441624       3.763414
                                                         0.806764       0.546922
                                                         0.283960       0.015501
                                                         0.097098       0.001415
                          1       8    3dyz             34.417212     302.926287
                                                         6.739673       7.358850
                                                         2.441624       6.518424
                                                         0.806764       0.947296
                                                         0.283960       0.026849
                                                         0.097098       0.002451
                          1       8    3dz2             34.417212     174.894573
                                                         6.739673       4.248634
                                                         2.441624       3.763414
                                                         0.806764       0.546922
                                                         0.283960       0.015501
                                                         0.097098       0.001415

                          1       9    4dx2             34.417212    -164.169372
                                                         6.739673      -4.401044
                                                         2.441624      -2.510108
                                                         0.806764       0.323683
                                                         0.283960       0.139703
                                                         0.097098       0.001225
                          1       9    4dxy             34.417212    -284.349694
                                                         6.739673      -7.622831
                                                         2.441624      -4.347634
                                                         0.806764       0.560636
                                                         0.283960       0.241972
                                                         0.097098       0.002122
                          1       9    4dxz             34.417212    -284.349694
                                                         6.739673      -7.622831
                                                         2.441624      -4.347634
                                                         0.806764       0.560636
                                                         0.283960       0.241972
                                                         0.097098       0.002122
                          1       9    4dy2             34.417212    -164.169372
                                                         6.739673      -4.401044
                                                         2.441624      -2.510108
                                                         0.806764       0.323683
                                                         0.283960       0.139703
                                                         0.097098       0.001225
                          1       9    4dyz             34.417212    -284.349694
                                                         6.739673      -7.622831
                                                         2.441624      -4.347634
                                                         0.806764       0.560636
                                                         0.283960       0.241972
                                                         0.097098       0.002122
                          1       9    4dz2             34.417212    -164.169372
                                                         6.739673      -4.401044
                                                         2.441624      -2.510108
                                                         0.806764       0.323683
                                                         0.283960       0.139703
                                                         0.097098       0.001225

                          1      10    4fx3             34.417212      49.427593
                                                         6.739673      -2.026957
                                                         2.441624       1.033755
                                                         0.806764       0.576468
                                                         0.283960       0.042127
                                                         0.097098      -0.000799
                          1      10    4fx2y            34.417212     110.523457
                                                         6.739673      -4.532415
                                                         2.441624       2.311546
                                                         0.806764       1.289022
                                                         0.283960       0.094199
                                                         0.097098      -0.001786
                          1      10    4fx2z            34.417212     110.523457
                                                         6.739673      -4.532415
                                                         2.441624       2.311546
                                                         0.806764       1.289022
                                                         0.283960       0.094199
                                                         0.097098      -0.001786
                          1      10    4fxy2            34.417212     110.523457
                                                         6.739673      -4.532415
                                                         2.441624       2.311546
                                                         0.806764       1.289022
                                                         0.283960       0.094199
                                                         0.097098      -0.001786
                          1      10    4fxyz            34.417212     191.432243
                                                         6.739673      -7.850372
                                                         2.441624       4.003716
                                                         0.806764       2.232651
                                                         0.283960       0.163158
                                                         0.097098      -0.003093
                          1      10    4fxz2            34.417212     110.523457
                                                         6.739673      -4.532415
                                                         2.441624       2.311546
                                                         0.806764       1.289022
                                                         0.283960       0.094199
                                                         0.097098      -0.001786
                          1      10    4fy3             34.417212      49.427593
                                                         6.739673      -2.026957
                                                         2.441624       1.033755
                                                         0.806764       0.576468
                                                         0.283960       0.042127
                                                         0.097098      -0.000799
                          1      10    4fy2z            34.417212     110.523457
                                                         6.739673      -4.532415
                                                         2.441624       2.311546
                                                         0.806764       1.289022
                                                         0.283960       0.094199
                                                         0.097098      -0.001786
                          1      10    4fyz2            34.417212     110.523457
                                                         6.739673      -4.532415
                                                         2.441624       2.311546
                                                         0.806764       1.289022
                                                         0.283960       0.094199
                                                         0.097098      -0.001786
                          1      10    4fz3             34.417212      49.427593
                                                         6.739673      -2.026957
                                                         2.441624       1.033755
                                                         0.806764       0.576468
                                                         0.283960       0.042127
                                                         0.097098      -0.000799

                          2       1    1s            13575.369584       0.323227
                                                      2035.237517       2.062509
                                                       463.111112       2.210797
                                                       131.318553       4.954487
                                                        42.899593       1.730189
                                                        15.855102       4.257999

     RI Auxiliary Basis Set                                    aug-cc-pV5Z-OPTRI

       Number of orbital shell sets:                                          22
       Number of orbital shells:                                              22
       Number of primitive Cartesian functions:                               22
       Number of Cartesian basis functions:                                  188
       Number of spherical basis functions:                                  122
       Norm type:                                                              2

       Normalised Cartesian orbitals:

                        Set   Shell   Orbital            Exponent    Coefficient

                          1       1    1gx4              0.114786       0.002892
                          1       1    1gx3y             0.114786       0.007650
                          1       1    1gx3z             0.114786       0.007650
                          1       1    1gx2y2            0.114786       0.009877
                          1       1    1gx2yz            0.114786       0.017107
                          1       1    1gx2z2            0.114786       0.009877
                          1       1    1gxy3             0.114786       0.007650
                          1       1    1gxy2z            0.114786       0.017107
                          1       1    1gxyz2            0.114786       0.017107
                          1       1    1gxz3             0.114786       0.007650
                          1       1    1gy4              0.114786       0.002892
                          1       1    1gy3z             0.114786       0.007650
                          1       1    1gy2z2            0.114786       0.009877
                          1       1    1gyz3             0.114786       0.007650
                          1       1    1gz4              0.114786       0.002892

                          2       1    1px               0.121920       0.102691
                          2       1    1py               0.121920       0.102691
                          2       1    1pz               0.121920       0.102691

                          3       1    1s                0.152658       0.174060

                          4       1    1px               0.299745       0.316140
                          4       1    1py               0.299745       0.316140
                          4       1    1pz               0.299745       0.316140

                          5       1    1s                0.384933       0.348296

                          6       1    1hx5              0.391317       0.035161
                          6       1    1hx4y             0.391317       0.105483
                          6       1    1hx4z             0.391317       0.105483
                          6       1    1hx3y2            0.391317       0.161128
                          6       1    1hx3yz            0.391317       0.279083
                          6       1    1hx3z2            0.391317       0.161128
                          6       1    1hx2y3            0.391317       0.161128
                          6       1    1hx2y2z           0.391317       0.360294
                          6       1    1hx2yz2           0.391317       0.360294
                          6       1    1hx2z3            0.391317       0.161128
                          6       1    1hxy4             0.391317       0.105483
                          6       1    1hxy3z            0.391317       0.279083
                          6       1    1hxy2z2           0.391317       0.360294
                          6       1    1hxyz3            0.391317       0.279083
                          6       1    1hxz4             0.391317       0.105483
                          6       1    1hy5              0.391317       0.035161
                          6       1    1hy4z             0.391317       0.105483
                          6       1    1hy3z2            0.391317       0.161128
                          6       1    1hy2z3            0.391317       0.161128
                          6       1    1hyz4             0.391317       0.105483
                          6       1    1hz5              0.391317       0.035161

                          7       1    1fx3              0.540840       0.369283
                          7       1    1fx2y             0.540840       0.825742
                          7       1    1fx2z             0.540840       0.825742
                          7       1    1fxy2             0.540840       0.825742
                          7       1    1fxyz             0.540840       1.430227
                          7       1    1fxz2             0.540840       0.825742
                          7       1    1fy3              0.540840       0.369283
                          7       1    1fy2z             0.540840       0.825742
                          7       1    1fyz2             0.540840       0.825742
                          7       1    1fz3              0.540840       0.369283

                          8       1    1px               0.678328       0.877485
                          8       1    1py               0.678328       0.877485
                          8       1    1pz               0.678328       0.877485

                          9       1    1dx2              0.754246       1.004748
                          9       1    1dxy              0.754246       1.740275
                          9       1    1dxz              0.754246       1.740275
                          9       1    1dy2              0.754246       1.004748
                          9       1    1dyz              0.754246       1.740275
                          9       1    1dz2              0.754246       1.004748

                         10       1    1gx4              1.012792       1.152434
                         10       1    1gx3y             1.012792       3.049054
                         10       1    1gx3z             1.012792       3.049054
                         10       1    1gx2y2            1.012792       3.936312
                         10       1    1gx2yz            1.012792       6.817893
                         10       1    1gx2z2            1.012792       3.936312
                         10       1    1gxy3             1.012792       3.049054
                         10       1    1gxy2z            1.012792       6.817893
                         10       1    1gxyz2            1.012792       6.817893
                         10       1    1gxz3             1.012792       3.049054
                         10       1    1gy4              1.012792       1.152434
                         10       1    1gy3z             1.012792       3.049054
                         10       1    1gy2z2            1.012792       3.936312
                         10       1    1gyz3             1.012792       3.049054
                         10       1    1gz4              1.012792       1.152434

                         11       1    1s                1.103587       0.767388

                         12       1    1ix6              1.245967       1.020534
                         12       1    1ix5y             1.245967       3.384727
                         12       1    1ix5z             1.245967       3.384727
                         12       1    1ix4y2            1.245967       5.862520
                         12       1    1ix4yz            1.245967      10.154182
                         12       1    1ix4z2            1.245967       5.862520
                         12       1    1ix3y3            1.245967       6.936627
                         12       1    1ix3y2z           1.245967      15.510769
                         12       1    1ix3yz2           1.245967      15.510769
                         12       1    1ix3z3            1.245967       6.936627
                         12       1    1ix2y4            1.245967       5.862520
                         12       1    1ix2y3z           1.245967      15.510769
                         12       1    1ix2y2z2          1.245967      20.024317
                         12       1    1ix2yz3           1.245967      15.510769
                         12       1    1ix2z4            1.245967       5.862520
                         12       1    1ixy5             1.245967       3.384727
                         12       1    1ixy4z            1.245967      10.154182
                         12       1    1ixy3z2           1.245967      15.510769
                         12       1    1ixy2z3           1.245967      15.510769
                         12       1    1ixyz4            1.245967      10.154182
                         12       1    1ixz5             1.245967       3.384727
                         12       1    1iy6              1.245967       1.020534
                         12       1    1iy5z             1.245967       3.384727
                         12       1    1iy4z2            1.245967       5.862520
                         12       1    1iy3z3            1.245967       6.936627
                         12       1    1iy2z4            1.245967       5.862520
                         12       1    1iyz5             1.245967       3.384727
                         12       1    1iz6              1.245967       1.020534

                         13       1    1fx3              1.255807       2.457712
                         13       1    1fx2y             1.255807       5.495611
                         13       1    1fx2z             1.255807       5.495611
                         13       1    1fxy2             1.255807       5.495611
                         13       1    1fxyz             1.255807       9.518677
                         13       1    1fxz2             1.255807       5.495611
                         13       1    1fy3              1.255807       2.457712
                         13       1    1fy2z             1.255807       5.495611
                         13       1    1fyz2             1.255807       5.495611
                         13       1    1fz3              1.255807       2.457712

                         14       1    1px               1.626163       2.617551
                         14       1    1py               1.626163       2.617551
                         14       1    1pz               1.626163       2.617551

                         15       1    1dx2              1.990505       5.490289
                         15       1    1dxy              1.990505       9.509459
                         15       1    1dxz              1.990505       9.509459
                         15       1    1dy2              1.990505       5.490289
                         15       1    1dyz              1.990505       9.509459
                         15       1    1dz2              1.990505       5.490289

                         16       1    1hx5              2.339630      11.750937
                         16       1    1hx4y             2.339630      35.252812
                         16       1    1hx4z             2.339630      35.252812
                         16       1    1hx3y2            2.339630      53.849559
                         16       1    1hx3yz            2.339630      93.270173
                         16       1    1hx3z2            2.339630      53.849559
                         16       1    1hx2y3            2.339630      53.849559
                         16       1    1hx2y2z           2.339630     120.411275
                         16       1    1hx2yz2           2.339630     120.411275
                         16       1    1hx2z3            2.339630      53.849559
                         16       1    1hxy4             2.339630      35.252812
                         16       1    1hxy3z            2.339630      93.270173
                         16       1    1hxy2z2           2.339630     120.411275
                         16       1    1hxyz3            2.339630      93.270173
                         16       1    1hxz4             2.339630      35.252812
                         16       1    1hy5              2.339630      11.750937
                         16       1    1hy4z             2.339630      35.252812
                         16       1    1hy3z2            2.339630      53.849559
                         16       1    1hy2z3            2.339630      53.849559
                         16       1    1hyz4             2.339630      35.252812
                         16       1    1hz5              2.339630      11.750937

                         17       1    1gx4              3.524920      35.570986
                         17       1    1gx3y             3.524920      94.111983
                         17       1    1gx3z             3.524920      94.111983
                         17       1    1gx2y2            3.524920     121.498047
                         17       1    1gx2yz            3.524920     210.440791
                         17       1    1gx2z2            3.524920     121.498047
                         17       1    1gxy3             3.524920      94.111983
                         17       1    1gxy2z            3.524920     210.440791
                         17       1    1gxyz2            3.524920     210.440791
                         17       1    1gxz3             3.524920      94.111983
                         17       1    1gy4              3.524920      35.570986
                         17       1    1gy3z             3.524920      94.111983
                         17       1    1gy2z2            3.524920     121.498047
                         17       1    1gyz3             3.524920      94.111983
                         17       1    1gz4              3.524920      35.570986

                         18       1    1px               4.160664       8.470195
                         18       1    1py               4.160664       8.470195
                         18       1    1pz               4.160664       8.470195

                         19       1    1s                4.500495       2.202193

                         20       1    1fx3              4.904034      52.686550
                         20       1    1fx2y             4.904034     117.810708
                         20       1    1fx2z             4.904034     117.810708
                         20       1    1fxy2             4.904034     117.810708
                         20       1    1fxyz             4.904034     204.054131
                         20       1    1fxz2             4.904034     117.810708
                         20       1    1fy3              4.904034      52.686550
                         20       1    1fy2z             4.904034     117.810708
                         20       1    1fyz2             4.904034     117.810708
                         20       1    1fz3              4.904034      52.686550

                         21       1    1dx2              5.244543      29.915609
                         21       1    1dxy              5.244543      51.815354
                         21       1    1dxz              5.244543      51.815354
                         21       1    1dy2              5.244543      29.915609
                         21       1    1dyz              5.244543      51.815354
                         21       1    1dz2              5.244543      29.915609

                         22       1    1dx2             10.138089      94.805303
                         22       1    1dxy             10.138089     164.207602
                         22       1    1dxz             10.138089     164.207602
                         22       1    1dy2             10.138089      94.805303
                         22       1    1dyz             10.138089     164.207602
                         22       1    1dz2             10.138089      94.805303

       Atomic covalent radius [Angstrom]:                                  0.770

       Atomic van der Waals radius [Angstrom]:                             1.700

     The atoms of this atomic kind are PAW atoms (GAPW):
       Hard Gaussian function radius:                                      1.512
       Rho0 radius:                                                        1.512
       Maximum GTO radius used for PAW projector construction:            24.566

     GAPW Soft Basis Set                                TZVPP-MOLOPT-GGA-ae_soft

       Number of orbital shell sets:                                           2
       Number of orbital shells:                                              11
       Number of primitive Cartesian functions:                                4
       Number of Cartesian basis functions:                                   36
       Number of spherical basis functions:                                   31
       Norm type:                                                              2

       Normalised Cartesian orbitals:

                        Set   Shell   Orbital            Exponent    Coefficient

                          1       1    1s                2.441624       0.446183
                                                         0.806764       0.003692
                                                         0.283960       0.027513
                                                         0.097098       0.019281

                          1       2    2s                2.441624      -0.104551
                                                         0.806764       0.362633
                                                         0.283960       0.094997
                                                         0.097098       0.029117

                          1       3    3s                2.441624      -0.199197
                                                         0.806764      -0.252838
                                                         0.283960       0.169545
                                                         0.097098       0.047046

                          1       4    4s                2.441624      -0.053941
                                                         0.806764       0.091223
                                                         0.283960      -0.341415
                                                         0.097098       0.188374

                          1       5    2px               2.441624       0.695625
                                                         0.806764       0.779023
                                                         0.283960       0.032186
                                                         0.097098       0.005087
                          1       5    2py               2.441624       0.695625
                                                         0.806764       0.779023
                                                         0.283960       0.032186
                                                         0.097098       0.005087
                          1       5    2pz               2.441624       0.695625
                                                         0.806764       0.779023
                                                         0.283960       0.032186
                                                         0.097098       0.005087

                          1       6    3px               2.441624       0.912249
                                                         0.806764      -0.188640
                                                         0.283960       0.294367
                                                         0.097098       0.008084
                          1       6    3py               2.441624       0.912249
                                                         0.806764      -0.188640
                                                         0.283960       0.294367
                                                         0.097098       0.008084
                          1       6    3pz               2.441624       0.912249
                                                         0.806764      -0.188640
                                                         0.283960       0.294367
                                                         0.097098       0.008084

                          1       7    4px               2.441624      -0.855991
                                                         0.806764      -0.070055
                                                         0.283960      -0.017243
                                                         0.097098       0.081068
                          1       7    4py               2.441624      -0.855991
                                                         0.806764      -0.070055
                                                         0.283960      -0.017243
                                                         0.097098       0.081068
                          1       7    4pz               2.441624      -0.855991
                                                         0.806764      -0.070055
                                                         0.283960      -0.017243
                                                         0.097098       0.081068

                          1       8    3dx2              2.441624       3.763414
                                                         0.806764       0.546922
                                                         0.283960       0.015501
                                                         0.097098       0.001415
                          1       8    3dxy              2.441624       6.518424
                                                         0.806764       0.947296
                                                         0.283960       0.026849
                                                         0.097098       0.002451
                          1       8    3dxz              2.441624       6.518424
                                                         0.806764       0.947296
                                                         0.283960       0.026849
                                                         0.097098       0.002451
                          1       8    3dy2              2.441624       3.763414
                                                         0.806764       0.546922
                                                         0.283960       0.015501
                                                         0.097098       0.001415
                          1       8    3dyz              2.441624       6.518424
                                                         0.806764       0.947296
                                                         0.283960       0.026849
                                                         0.097098       0.002451
                          1       8    3dz2              2.441624       3.763414
                                                         0.806764       0.546922
                                                         0.283960       0.015501
                                                         0.097098       0.001415

                          1       9    4dx2              2.441624      -2.510108
                                                         0.806764       0.323683
                                                         0.283960       0.139703
                                                         0.097098       0.001225
                          1       9    4dxy              2.441624      -4.347634
                                                         0.806764       0.560636
                                                         0.283960       0.241972
                                                         0.097098       0.002122
                          1       9    4dxz              2.441624      -4.347634
                                                         0.806764       0.560636
                                                         0.283960       0.241972
                                                         0.097098       0.002122
                          1       9    4dy2              2.441624      -2.510108
                                                         0.806764       0.323683
                                                         0.283960       0.139703
                                                         0.097098       0.001225
                          1       9    4dyz              2.441624      -4.347634
                                                         0.806764       0.560636
                                                         0.283960       0.241972
                                                         0.097098       0.002122
                          1       9    4dz2              2.441624      -2.510108
                                                         0.806764       0.323683
                                                         0.283960       0.139703
                                                         0.097098       0.001225

                          1      10    4fx3              2.441624       1.033755
                                                         0.806764       0.576468
                                                         0.283960       0.042127
                                                         0.097098      -0.000799
                          1      10    4fx2y             2.441624       2.311546
                                                         0.806764       1.289022
                                                         0.283960       0.094199
                                                         0.097098      -0.001786
                          1      10    4fx2z             2.441624       2.311546
                                                         0.806764       1.289022
                                                         0.283960       0.094199
                                                         0.097098      -0.001786
                          1      10    4fxy2             2.441624       2.311546
                                                         0.806764       1.289022
                                                         0.283960       0.094199
                                                         0.097098      -0.001786
                          1      10    4fxyz             2.441624       4.003716
                                                         0.806764       2.232651
                                                         0.283960       0.163158
                                                         0.097098      -0.003093
                          1      10    4fxz2             2.441624       2.311546
                                                         0.806764       1.289022
                                                         0.283960       0.094199
                                                         0.097098      -0.001786
                          1      10    4fy3              2.441624       1.033755
                                                         0.806764       0.576468
                                                         0.283960       0.042127
                                                         0.097098      -0.000799
                          1      10    4fy2z             2.441624       2.311546
                                                         0.806764       1.289022
                                                         0.283960       0.094199
                                                         0.097098      -0.001786
                          1      10    4fyz2             2.441624       2.311546
                                                         0.806764       1.289022
                                                         0.283960       0.094199
                                                         0.097098      -0.001786
                          1      10    4fz3              2.441624       1.033755
                                                         0.806764       0.576468
                                                         0.283960       0.042127
                                                         0.097098      -0.000799

                          2       1    1s         

     AE Potential information for                                            ALL

       Description:                                       All-electron potential
                                          Krack, Parrinello, PCCP 2, 2105 (2000)

       Gaussian exponent of the core charge distribution:               4.109048
       Electronic configuration (s p d ...):                           4   2   0

  2. Atomic kind: H                                     Number of atoms:      10

     Orbital Basis Set                                       TZVPP-MOLOPT-GGA-ae

       Number of orbital shell sets:                                           1
       Number of orbital shells:                                               6
       Number of primitive Cartesian functions:                                5
       Number of Cartesian basis functions:                                   15
       Number of spherical basis functions:                                   14
       Norm type:                                                              2

       Normalised Cartesian orbitals:

                        Set   Shell   Orbital            Exponent    Coefficient

                          1       1    1s               34.177738      -6.423540
                                                         4.947701      -0.270539
                                                         1.065127       0.831136
                                                         0.293823      -0.051765
                                                         0.091371      -0.049397

                          1       2    2s               34.177738       3.211471
                                                         4.947701       0.528758
                                                         1.065127       0.154529
                                                         0.293823       0.227881
                                                         0.091371      -0.041080

                          1       3    3s               34.177738      -1.131577
                                                         4.947701      -0.040048
                                                         1.065127       0.164523
                                                         0.293823       0.077306
                                                         0.091371       0.076395

                          1       4    2px              34.177738     -11.084238
                                                         4.947701       1.341091
                                                         1.065127       1.416453
                                                         0.293823      -0.007684
                                                         0.091371       0.008886
                          1       4    2py              34.177738     -11.084238
                                                         4.947701       1.341091
                                                         1.065127       1.416453
                                                         0.293823      -0.007684
                                                         0.091371       0.008886
                          1       4    2pz              34.177738     -11.084238
                                                         4.947701       1.341091
                                                         1.065127       1.416453
                                                         0.293823      -0.007684
                                                         0.091371       0.008886

                          1       5    3px              34.177738       9.643751
                                                         4.947701      -0.549928
                                                         1.065127       0.106963
                                                         0.293823       0.330130
                                                         0.091371      -0.013062
                          1       5    3py              34.177738       9.643751
                                                         4.947701      -0.549928
                                                         1.065127       0.106963
                                                         0.293823       0.330130
                                                         0.091371      -0.013062
                          1       5    3pz              34.177738       9.643751
                                                         4.947701      -0.549928
                                                         1.065127       0.106963
                                                         0.293823       0.330130
                                                         0.091371      -0.013062

                          1       6    3dx2             34.177738       9.702470
                                                         4.947701      -1.124420
                                                         1.065127       1.617163
                                                         0.293823       0.052231
                                                         0.091371      -0.004737
                          1       6    3dxy             34.177738      16.805171
                                                         4.947701      -1.947552
                                                         1.065127       2.801009
                                                         0.293823       0.090468
                                                         0.091371      -0.008204
                          1       6    3dxz             34.177738      16.805171
                                                         4.947701      -1.947552
                                                         1.065127       2.801009
                                                         0.293823       0.090468
                                                         0.091371      -0.008204
                          1       6    3dy2             34.177738       9.702470
                                                         4.947701      -1.124420
                                                         1.065127       1.617163
                                                         0.293823       0.052231
                                                         0.091371      -0.004737
                          1       6    3dyz             34.177738      16.805171
                                                         4.947701      -1.947552
                                                         1.065127       2.801009
                                                         0.293823       0.090468
                                                         0.091371      -0.008204
                          1       6    3dz2             34.177738       9.702470
                                                         4.947701      -1.124420
                                                         1.065127       1.617163
                                                         0.293823       0.052231
                                                         0.091371      -0.004737

     RI Auxiliary Basis Set                                    aug-cc-pV5Z-OPTRI

       Number of orbital shell sets:                                          17
       Number of orbital shells:                                              17
       Number of primitive Cartesian functions:                               17
       Number of Cartesian basis functions:                                  115
       Number of spherical basis functions:                                   81
       Norm type:                                                              2

       Normalised Cartesian orbitals:

                        Set   Shell   Orbital            Exponent    Coefficient

                          1       1    1s                0.306678       0.293712

                          2       1    1fx3              0.582788       0.436871
                          2       1    1fx2y             0.582788       0.976873
                          2       1    1fx2z             0.582788       0.976873
                          2       1    1fxy2             0.582788       0.976873
                          2       1    1fxyz             0.582788       1.691994
                          2       1    1fxz2             0.582788       0.976873
                          2       1    1fy3              0.582788       0.436871
                          2       1    1fy2z             0.582788       0.976873
                          2       1    1fyz2             0.582788       0.976873
                          2       1    1fz3              0.582788       0.436871

                          3       1    1dx2              0.740674       0.973323
                          3       1    1dxy              0.740674       1.685844
                          3       1    1dxz              0.740674       1.685844
                          3       1    1dy2              0.740674       0.973323
                          3       1    1dyz              0.740674       1.685844
                          3       1    1dz2              0.740674       0.973323

                          4       1    1s                0.854346       0.633338

                          5       1    1px               0.977704       1.385796
                          5       1    1py               0.977704       1.385796
                          5       1    1pz               0.977704       1.385796

                          6       1    1gx4              1.260673       2.104225
                          6       1    1gx3y             1.260673       5.567256
                          6       1    1gx3z             1.260673       5.567256
                          6       1    1gx2y2            1.260673       7.187297
                          6       1    1gx2yz            1.260673      12.448763
                          6       1    1gx2z2            1.260673       7.187297
                          6       1    1gxy3             1.260673       5.567256
                          6       1    1gxy2z            1.260673      12.448763
                          6       1    1gxyz2            1.260673      12.448763
                          6       1    1gxz3             1.260673       5.567256
                          6       1    1gy4              1.260673       2.104225
                          6       1    1gy3z             1.260673       5.567256
                          6       1    1gy2z2            1.260673       7.187297
                          6       1    1gyz3             1.260673       5.567256
                          6       1    1gz4              1.260673       2.104225

                          7       1    1fx3              1.313322       2.718252
                          7       1    1fx2y             1.313322       6.078196
                          7       1    1fx2z             1.313322       6.078196
                          7       1    1fxy2             1.313322       6.078196
                          7       1    1fxyz             1.313322      10.527744
                          7       1    1fxz2             1.313322       6.078196
                          7       1    1fy3              1.313322       2.718252
                          7       1    1fy2z             1.313322       6.078196
                          7       1    1fyz2             1.313322       6.078196
                          7       1    1fz3              1.313322       2.718252

                          8       1    1dx2              1.868623       4.915553
                          8       1    1dxy              1.868623       8.513988
                          8       1    1dxz              1.868623       8.513988
                          8       1    1dy2              1.868623       4.915553
                          8       1    1dyz              1.868623       8.513988
                          8       1    1dz2              1.868623       4.915553

                          9       1    1s                2.242991       1.306263

                         10       1    1hx5              2.510965      14.785170
                         10       1    1hx4y             2.510965      44.355509
                         10       1    1hx4z             2.510965      44.355509
                         10       1    1hx3y2            2.510965      67.754159
                         10       1    1hx3yz            2.510965     117.353645
                         10       1    1hx3z2            2.510965      67.754159
                         10       1    1hx2y3            2.510965      67.754159
                         10       1    1hx2y2z           2.510965     151.502904
                         10       1    1hx2yz2           2.510965     151.502904
                         10       1    1hx2z3            2.510965      67.754159
                         10       1    1hxy4             2.510965      44.355509
                         10       1    1hxy3z            2.510965     117.353645
                         10       1    1hxy2z2           2.510965     151.502904
                         10       1    1hxyz3            2.510965     117.353645
                         10       1    1hxz4             2.510965      44.355509
                         10       1    1hy5              2.510965      14.785170
                         10       1    1hy4z             2.510965      44.355509
                         10       1    1hy3z2            2.510965      67.754159
                         10       1    1hy2z3            2.510965      67.754159
                         10       1    1hyz4             2.510965      44.355509
                         10       1    1hz5              2.510965      14.785170

                         11       1    1px               2.624145       4.760744
                         11       1    1py               2.624145       4.760744
                         11       1    1pz               2.624145       4.760744

                         12       1    1gx4              3.525409      35.584558
                         12       1    1gx3y             3.525409      94.147891
                         12       1    1gx3z             3.525409      94.147891
                         12       1    1gx2y2            3.525409     121.544404
                         12       1    1gx2yz            3.525409     210.521084
                         12       1    1gx2z2            3.525409     121.544404
                         12       1    1gxy3             3.525409      94.147891
                         12       1    1gxy2z            3.525409     210.521084
                         12       1    1gxyz2            3.525409     210.521084
                         12       1    1gxz3             3.525409      94.147891
                         12       1    1gy4              3.525409      35.584558
                         12       1    1gy3z             3.525409      94.147891
                         12       1    1gy2z2            3.525409     121.544404
                         12       1    1gyz3             3.525409      94.147891
                         12       1    1gz4              3.525409      35.584558

                         13       1    1fx3              3.758818      28.961421
                         13       1    1fx2y             3.758818      64.759707
                         13       1    1fx2z             3.758818      64.759707
                         13       1    1fxy2             3.758818      64.759707
                         13       1    1fxyz             3.758818     112.167102
                         13       1    1fxz2             3.758818      64.759707
                         13       1    1fy3              3.758818      28.961421
                         13       1    1fy2z             3.758818      64.759707
                         13       1    1fyz2             3.758818      64.759707
                         13       1    1fz3              3.758818      28.961421

                         14       1    1dx2              4.580832      23.608158
                         14       1    1dxy              4.580832      40.890528
                         14       1    1dxz              4.580832      40.890528
                         14       1    1dy2              4.580832      23.608158
                         14       1    1dyz              4.580832      40.890528
                         14       1    1dz2              4.580832      23.608158

                         15       1    1px               6.794656      15.636856
                         15       1    1py               6.794656      15.636856
                         15       1    1pz               6.794656      15.636856

                         16       1    1s                7.257089       3.151243

                         17       1    1px              22.632735      70.365761
                         17       1    1py              22.632735      70.365761
                         17       1    1pz              22.632735      70.365761

       Atomic covalent radius [Angstrom]:                                  0.320

       Atomic van der Waals radius [Angstrom]:                             1.090

     The atoms of this atomic kind are PAW atoms (GAPW):
       Hard Gaussian function radius:                                      1.200
       Rho0 radius:                                                        1.200
       Maximum GTO radius used for PAW projector construction:            24.566

     GAPW Soft Basis Set                                TZVPP-MOLOPT-GGA-ae_soft

[...]
 integrate_v_rspace                  80  9.0    0.002    0.002    8.476    8.522
 yz_to_x                            637 13.2    0.572    0.698    6.208    8.200
 mp_cart_create                     588  9.9    6.101    7.807    6.102    7.808
 dbt_pgrid_create_expert             84 10.8    0.000    0.000    6.070    7.783
 xc_pw_divergence                    79 10.0    0.002    0.002    7.113    7.743
 mp2_eri_3c_integrate                 1  7.0    0.004    0.005    1.824    7.157
 integrate_set_3c                  1320  8.0    1.703    6.796    1.820    7.152
 potential_pw2rs                     80 10.0    0.017    0.022    6.990    7.055
 transfer_rs2pw                     401  8.4    0.009    0.015    6.497    6.928
 x_to_yz                            714 12.9    0.839    0.957    6.367    6.717
 xc_rho_set_and_dset_create          79 10.0    0.173    0.228    6.149    6.660
 transfer_pw2rs                     401 10.6    0.006    0.007    6.516    6.593
 calculate_vxc_atom                  80  8.0    0.057    0.462    6.298    6.299
 gspace_mixing                       78  5.0    0.169    0.182    6.107    6.108
 gaVxcgb_GC                         158  9.0    0.098    5.726    0.098    5.726
 grid_collocate_task_list            80  7.0    4.706    5.413    4.706    5.413
 create_hermitian_form_of_ABBA        1  8.0    0.000    0.000    5.365    5.369
 mp_waitany                       20244 11.5    4.462    5.120    4.462    5.120
 calculate_rho_atom                 320  9.0    1.029    4.987    1.029    4.987
 diagonalize_C                        1  8.0    0.000    0.000    4.750    4.752
 cp_fm_power                          2  7.5    0.063    0.074    4.652    4.655
 mp_sum_dv                        17689 11.3    4.339    4.500    4.339    4.500
 broyden_mixing                      78  6.0    4.270    4.371    4.408    4.480
 mp_sum_dm                         3924  7.6    4.330    4.417    4.330    4.417
 integrate_vhg0_rspace               80  8.0    0.187    0.225    3.901    3.923
 qs_scf_new_mos                      79  5.0    0.001    0.001    3.881    3.900
 transfer_rs2pw_250                 161 10.0    1.281    1.438    3.328    3.883
 mp_sum_l                          1078  6.4    2.910    3.811    2.910    3.811
 integrate_four_center_load          80 10.0    0.000    0.001    2.895    3.797
 hfx_load_balance                     1 11.0    0.000    0.000    2.895    3.797
 put_rho0_on_grid                    80  9.0    0.188    0.250    3.722    3.780
 hfx_load_balance_range               1 12.0    0.000    0.000    2.868    3.769
 mp_alltoall_d11v                  1544  9.5    2.478    3.519    2.478    3.519
 transfer_pw2rs_250                 161 11.0    1.103    1.198    3.388    3.508
 rpa_num_int_RPA_matrix_operati     100  7.0    0.001    0.004    3.376    3.377
 eigensolver_symm                    80  6.0    0.003    0.003    3.178    3.182
 create_qs_kind_set                   1  2.0    0.000    0.000    2.763    2.764
 read_qs_kind                         4  3.0    1.557    1.584    2.763    2.764
 calculate_rho_atom_coeff            80  6.0    0.071    0.118    2.645    2.645
 mp_waitall_1                     84142 12.0    1.963    2.486    1.963    2.486
 calc_mat_Q                         100  8.0    0.000    0.000    2.364    2.379
 contract_S_to_Q                    100  9.0    0.001    0.001    2.349    2.364
 powell_optimize                 778755 11.0    1.946    2.019    1.946    2.019
 mp_alltoall_d45                     81 10.0    1.186    1.963    1.186    1.963
 calc_pair_dist_radii                 1 10.0    0.870    0.923    1.785    1.886
 dbt_total                            8  8.0    0.000    0.000    1.819    1.819
 transfer_pw2rs_30                   80 12.0    0.734    0.793    1.650    1.802
 transfer_rs2pw_30                   80  9.0    0.755    0.790    1.719    1.743
 cp_fm_cholesky_invert              101  8.0    1.570    1.632    1.570    1.632
 dbt_contract                         4  9.0    0.001    0.001    1.454    1.612
 rs_gather_matrices                  80 10.0    0.002    0.006    1.379    1.504
 xc_functional_eval                 395 10.9    0.001    0.002    0.900    1.435
 pbe_lda_eval                       395 11.9    0.900    1.434    0.900    1.434
 grid_integrate_task_list            80 10.0    0.106    1.433    0.106    1.433
 mp_sendrecv_dv                   34400 10.0    1.285    1.334    1.285    1.334
 pw_scatter_p                       874 12.1    1.139    1.316    1.139    1.316
 parser_read_line                332741  4.0    0.112    0.122    1.205    1.232
 parser_read_line_low               357  5.0    0.097    0.510    1.093    1.118
 rs_grid_zero                       402 11.2    1.070    1.106    1.070    1.106
 transfer_rs2pw_90                   80  9.0    0.232    0.285    0.926    1.092
 broadcast_input_information        357  6.0    0.239    0.263    0.996    1.059
 transfer_pw2rs_90                   80 12.0    0.239    0.280    0.963    1.049
 cp2k_distribution_to_z_slices       80  9.0    0.368    0.403    0.833    1.023
 pw_gather_p                        797 11.8    0.876    1.009    0.876    1.009
 mp_isendrecv_dv                  68800 12.0    0.465    0.931    0.465    0.931
 fft_wrap_pw1pw2_90                 160 10.5    0.024    0.042    0.797    0.902
 compute_Erpa_by_freq_int           100  8.0    0.002    0.003    0.890    0.891
 Vh_1c_gg_integrals                  80  8.0    0.022    0.673    0.708    0.890
 pw_derive                          714 11.3    0.783    0.845    0.783    0.845
 dbt_remap                            8 10.0    0.002    0.002    0.840    0.841
 cp_fm_cholesky_decompose           102  9.0    0.816    0.824    0.816    0.824
 dbt_nd_mp_comm                       8 11.0    0.000    0.000    0.696    0.792
 qs_energies_init_hamiltonians        1  3.0    0.000    0.000    0.792    0.792
 build_core_hamiltonian_matrix        1  4.0    0.000    0.000    0.781    0.781
 overlap_condnum                      1  5.0    0.000    0.000    0.775    0.779
 dbt_copy                            12 10.1    0.000    0.000    0.219    0.762
 dbt_reshape                          8 11.6    0.022    0.031    0.174    0.712
 mp_waitall_2                        48 15.7    0.152    0.695    0.152    0.695
 integrate_four_center_getP          80 10.0    0.034    0.039    0.642    0.695
 dbt_communicate_buffer               8 12.6    0.002    0.002    0.141    0.679
 pw_copy                           1195 10.6    0.601    0.654    0.601    0.654
 arnoldi_conjugate_gradient           5  6.0    0.015    0.018    0.641    0.642
 pw_poisson_rebuild                  80  9.0    0.000    0.000    0.608    0.632
 ps_wavelet_create                    1 10.0    0.000    0.000    0.608    0.632
 RS_z_slice_distribution              1 11.0    0.498    0.565    0.608    0.632
 compute_vec_Sigma_x_minus_vxc_       1  4.0    0.000    0.000    0.624    0.624
 mp_irecv_dm3                      2892 11.5    0.194    0.574    0.194    0.574
 dbt_tas_multiply                     8 11.5    0.000    0.000    0.573    0.573
 dbt_tas_total                        8 12.5    0.002    0.002    0.571    0.571
 mp_bcast_am_src                    357  7.0    0.435    0.532    0.465    0.558
 integrate_four_center_dist_KS       80 10.0    0.033    0.038    0.548    0.549
 transfer_pw2rs_10                   80 12.0    0.191    0.239    0.508    0.545
 transfer_rs2pw_10                   80  9.0    0.194    0.208    0.514    0.523
 mp_bcast_i_src                    1428  7.0    0.278    0.500    0.278    0.500
 pw_poisson_set                      81  8.9    0.002    0.003    0.477    0.490
 calculate_dm_sparse                 79  6.0    0.001    0.001    0.459    0.475
 cp_dbcsr_plus_fm_fm_t               79  7.0    0.001    0.001    0.458    0.473
 dbt_tas_dbm                          8 13.5    0.000    0.000    0.403    0.403
 dbcsr_sym_matrix_vector_mult      2148  7.0    0.034    0.038    0.348    0.392
 dbcsr_complete_redistribute        284  8.4    0.024    0.028    0.384    0.392
 pw_copy_to_array                   797 11.8    0.328    0.390    0.328    0.390
 dbm_multiply                         8 15.5    0.318    0.384    0.318    0.384
 dbt_tas_mm_1N                        6 14.5    0.000    0.000    0.305    0.370
 pw_integral_ab_c1d_c1d_gs           80  9.0    0.260    0.264    0.337    0.370
 create_B                             1  8.0    0.000    0.000    0.362    0.367
 mp2_main_alloc_hfx                   1  4.0    0.165    0.357    0.165    0.357
 copy_dbcsr_to_fm                   122  6.6    0.002    0.003    0.342    0.357
 abc_contract                      1320  9.0    0.118    0.356    0.118    0.356
 init_scf_run                         1  3.0    0.000    0.000    0.352    0.353
 mp_max_i                           681  2.9    0.149    0.347    0.149    0.347
 pw_copy_from_array                 874 12.1    0.266    0.346    0.266    0.346
 mp_sum_i                            21  9.7    0.193    0.345    0.193    0.345
 calculate_rho0_atom                320  9.0    0.325    0.345    0.325    0.345
 restraint_control                    1  2.0    0.000    0.000    0.192    0.344
 dbcsr_multiply_generic             148  8.1    0.007    0.008    0.322    0.343
 update_ks_atom                      80  8.0    0.050    0.098    0.280    0.332
 create_A                             1  8.0    0.001    0.002    0.327    0.331
 mp_isend_dm3                      2892 11.5    0.182    0.330    0.182    0.330
 fft_wrap_pw1pw2_30                 160 10.5    0.005    0.005    0.311    0.323
 pw_axpy                            795  9.3    0.287    0.318    0.287    0.318
 mp_alltoall_z11v                   320 13.5    0.301    0.314    0.301    0.314
 scf_env_initial_rho_setup            1  4.0    0.000    0.000    0.300    0.301
 cp_fm_uplo_to_full                 104  8.0    0.114    0.291    0.114    0.291
 cp_fm_syrk                           3  7.0    0.276    0.280    0.276    0.280
 dbt_tas_estimate_result_nze          4 12.0    0.003    0.004    0.243    0.243
 dbcsr_desymmetrize_deep            124  7.6    0.006    0.007    0.226    0.238
 mp_bcast_dm                       2560  9.0    0.229    0.236    0.229    0.236
 copy_fm_to_dbcsr                   162  8.1    0.001    0.001    0.228    0.234
 qs_init_subsys                       1  2.0    0.006    0.006    0.227    0.227
 cp_fm_to_fm_submat_general         112 10.1    0.150    0.227    0.150    0.227
 mp_isend_dv                      25450 11.9    0.169    0.221    0.169    0.221
 qs_env_setup                         1  3.0    0.000    0.000    0.197    0.204
 qs_env_rebuild_pw_env                2  3.5    0.000    0.000    0.196    0.202
 pw_env_rebuild                       1  5.0    0.001    0.001    0.196    0.202
 yz_to_xz                           160 14.0    0.014    0.016    0.189    0.200
 dbcsr_add_d                       3289  7.0    0.003    0.004    0.031    0.199
 dbcsr_add_anytype                 3289  8.0    0.004    0.025    0.028    0.195
 pw_zero                            476 10.3    0.156    0.183    0.156    0.183
 mp_alltoall_i11v                   976  9.3    0.173    0.174    0.173    0.174
 create_integ_mat                     4  6.0    0.001    0.002    0.167    0.173
 array2fm                             4  7.0    0.000    0.000    0.159    0.168
 pw_grid_setup                        4  6.0    0.000    0.000    0.159    0.165
 pw_grid_setup_internal               4  7.0    0.003    0.004    0.159    0.165
 multiply_cannon                    148  9.1    0.015    0.016    0.150    0.163
 fft_wrap_pw1pw2_10                 160 10.5    0.002    0.002    0.161    0.162
 dbcsr_col_vec_to_rep_row          2148  8.0    0.015    0.017    0.115    0.158
 fm_general_add_bse                   5 10.2    0.000    0.000    0.146    0.155
 dbcsr_finalize                    5045 10.7    0.011    0.047    0.043    0.146
 hybrid_alltoall_any                420 11.0    0.021    0.024    0.139    0.146
 make_m2s                           296  9.1    0.006    0.007    0.134    0.143
 dbcsr_rep_row_to_rep_col_vec      2148  8.0    0.011    0.013    0.066    0.143
 mp_rank_compare                   1671 12.9    0.136    0.142    0.136    0.142
 cp_fm_redistribute_start            85  8.0    0.094    0.104    0.124    0.141
 xz_to_yz                           160 11.0    0.010    0.011    0.136    0.138
 Q_trace_and_add_unit_matrix        100  8.0    0.008    0.010    0.120    0.138
 multiply_cannon_loop               148 10.1    0.020    0.023    0.113    0.127
 mp_bcast_dv                       2233  9.0    0.061    0.122    0.061    0.122
 dbt_tas_replicate                    8 13.5    0.045    0.062    0.102    0.107
 cp_fm_symm                          80  7.0    0.101    0.106    0.101    0.106
 mp_alltoall_i22                    408  9.2    0.084    0.101    0.084    0.101
 vxc_of_r_new                       316  9.0    0.001    0.015    0.003    0.096
 array2fm_info                        4  8.0    0.082    0.092    0.083    0.093
 mult_B_with_W                        1  8.0    0.000    0.000    0.086    0.091
 make_images                        296 10.1    0.018    0.021    0.084    0.090
 scale_and_distribute               160 10.0    0.079    0.087    0.079    0.087
 mp_bcast_iv                        497  6.3    0.032    0.082    0.032    0.082
 rs_scatter_matrices                 80  7.0    0.001    0.007    0.077    0.079
 dbcsr_merge_all                   4105 11.4    0.015    0.055    0.025    0.072
 pw_grid_sort                         4  8.0    0.043    0.045    0.067    0.070
 pw_scale                           317  9.5    0.054    0.070    0.054    0.070
 postprocess_bse                      1  9.0    0.000    0.000    0.067    0.069
 dbcsr_iterator_start             28067  8.9    0.035    0.053    0.041    0.066
 dbcsr_copy                        9398  7.6    0.034    0.042    0.056    0.065
 get_2c_integrals                     1  6.0    0.000    0.000    0.058    0.059
 scf_post_calculation_gpw             1  3.0    0.000    0.000    0.058    0.058
 write_available_results              1  4.0    0.000    0.000    0.058    0.058
 write_mo_free_results                1  5.0    0.003    0.004    0.058    0.058
 dbt_split_blocks_generic            20  8.8    0.019    0.021    0.055    0.056
 fm_general_add_bse_5_comm_buff       5 11.2    0.000    0.000    0.034    0.051
 communicate_buffer                   5 12.2    0.001    0.001    0.034    0.051
 mp_comm_split_direct                48 14.5    0.032    0.049    0.032    0.049
 dbm_reserve_blocks                  67 14.0    0.043    0.049    0.043    0.049
 array2fm_buffer_send                 4  8.0    0.041    0.048    0.041    0.048
 ao_to_mo_and_store_B_mult_gw_1       8  7.0    0.000    0.000    0.032    0.046
 dbcsr_create_new                 12303  9.0    0.033    0.036    0.042    0.046
 mp_irecv_dv                      25330 11.9    0.025    0.045    0.025    0.045
 mixing_init                          1  5.0    0.041    0.043    0.044    0.044
 dbt_distribution_new_expert         76 10.1    0.001    0.002    0.042    0.044
 mp_bcast_iv_src                    357  7.0    0.014    0.043    0.014    0.043
 dbcsr_crop_matrix                  395 10.0    0.003    0.003    0.029    0.042
 multiply_cannon_multrec           3088 11.1    0.031    0.040    0.032    0.041
 dbcsr_iterator_stop              28067  8.9    0.025    0.034    0.031    0.041
 mp_alltoall_i                       39 13.9    0.026    0.040    0.026    0.040
 mp_sum_im                        10902 13.0    0.031    0.040    0.031    0.040
 fm_general_add_bse_1_setup           5 11.2    0.032    0.039    0.032    0.039
 mp_maxloc_dv                      1533  1.0    0.034    0.038    0.034    0.038
 fm_general_add_bse_4_buf_from_       1 10.0    0.028    0.037    0.028    0.037
 cube_transpose_2                   160 11.0    0.003    0.004    0.033    0.037
 ao_to_mo_and_store_B_E_Ex_gw_1       8  7.0    0.016    0.017    0.033    0.036
 array2fm_fill                        4  8.0    0.016    0.017    0.027    0.036
 dbt_tas_communicate_buffer          16 15.9    0.002    0.003    0.026    0.035
 make_images_data                   296 11.1    0.004    0.004    0.027    0.034
 create_fast_col_vec_access        4296  8.0    0.018    0.024    0.027    0.034
 pw_grid_distribute                   4  8.0    0.010    0.011    0.019    0.034
 mp_cart_rank                    123120 10.8    0.028    0.034    0.028    0.034
 create_fast_row_vec_access        4296  8.0    0.018    0.024    0.028    0.033
 dbt_tas_reserve_blocks_index        59 13.0    0.001    0.001    0.028    0.033
 get_multipoles_mo                    1 10.0    0.000    0.000    0.032    0.033
 ao_to_mo_and_store_B_mult_bse_       8  7.0    0.000    0.000    0.027    0.032
 dbcsr_copy_submatrix               395 11.0    0.003    0.004    0.022    0.032
 dbt_tas_distribution_new            95 11.8    0.022    0.022    0.032    0.032
 dbt_split_copyback                   4 10.0    0.018    0.021    0.025    0.031
 compute_max_radius                   1  6.0    0.030    0.031    0.030    0.031
 cube_transpose_1                   160 14.0    0.003    0.003    0.029    0.031
 dbt_reserve_blocks_index            36 10.8    0.001    0.001    0.025    0.030
 fm_general_add_bse_4_buf_from_       1 10.0    0.024    0.030    0.024    0.030
 multiply_cannon_metrocomm3        3088 11.1    0.005    0.005    0.015    0.029
 dbt_tas_replicate_communicate_       6 14.5    0.000    0.000    0.021    0.029
 mp2_main_free_hfx                    1  4.0    0.015    0.029    0.015    0.029
 self_consistency_check              79  5.0    0.000    0.000    0.017    0.028
 cp_sm_mix                           79  6.0    0.000    0.001    0.017    0.027
 hirshfeld_integration                1  6.0    0.001    0.005    0.027    0.027
 mp_max_d                            81  6.9    0.017    0.027    0.017    0.027
 print_transition_amplitudes          1 10.0    0.000    0.000    0.027    0.027
 print_transition_amplitudes_co      50 11.0    0.000    0.001    0.027    0.027
 filter_eigvec_contrib               50 12.0    0.016    0.016    0.027    0.027
 dbt_reserve_blocks_index_array      28 10.6    0.000    0.000    0.022    0.027
 ao_to_mo_and_store_B_E_Ex_bse_       8  7.0    0.011    0.013    0.024    0.027
 make_images_sizes                  296 11.1    0.000    0.000    0.023    0.027
 mp_sum_iv                          357  9.6    0.020    0.026    0.020    0.026
 mp_alltoall_i44                    296 12.1    0.023    0.026    0.023    0.026
 compute_2c_integrals                 1  7.0    0.001    0.001    0.025    0.026
 dbcsr_scale_anytype               3290  9.0    0.006    0.008    0.016    0.026
 sort_shells                          4  9.0    0.024    0.025    0.024    0.025
 dbcsr_sym_matrix_vector_mult_l    2148  8.0    0.009    0.019    0.015    0.025
 cp_fm_create                       401  7.8    0.016    0.025    0.016    0.025
 -------------------------------------------------------------------------------

 The number of warnings for this run is : 1
 
 -------------------------------------------------------------------------------
  **** **** ******  **  PROGRAM ENDED AT                 2025-03-29 08:18:46.738
 ***** ** ***  *** **   PROGRAM RAN ON                              i01r11c03s09
 **    ****   ******    PROGRAM RAN BY                                   di38fab
 ***** **    ** ** **   PROGRAM PROCESS ID                                392643
  **** **  *******  **  PROGRAM STOPPED IN /hppfs/scratch/04/di38fab/07_MOL_non_
                                           aug/05_MOL_non_aug/05_MOL/aUKBqsEOTmq
                                           69kFe5R_nOg/5k_set_final_qzvp/HIYNUY/
                                           TZVPP/GW+BSE
