 DBCSR| CPU Multiplication driver                                           BLAS (U)
 DBCSR| Multrec recursion limit                                              512 (U)
 DBCSR| Multiplication stack size                                           1000 (D)
 DBCSR| Maximum elements for images                                    UNLIMITED (U)
 DBCSR| Multiplicative factor virtual images                                   1 (U)
 DBCSR| Use multiplication densification                                       T (D)
 DBCSR| Multiplication size stacks                                             3 (U)
 DBCSR| Use memory pool for CPU allocation                                     F (U)
 DBCSR| Number of 3D layers                                               SINGLE (U)
 DBCSR| Use MPI memory allocation                                              F (U)
 DBCSR| Use RMA algorithm                                                      F (U)
 DBCSR| Use Communication thread                                               T (U)
 DBCSR| Communication thread load                                             75 (D)
 DBCSR| MPI: My process id                                                     0
 DBCSR| MPI: Number of processes                                              96
 DBCSR| OMP: Current number of threads                                         4
 DBCSR| OMP: Max number of threads                                             4
 DBCSR| Split modifier for TAS multiplication algorithm                  1.0E+00 (U)


  **** **** ******  **  PROGRAM STARTED AT               2025-04-12 03:26:53.222
 ***** ** ***  *** **   PROGRAM STARTED ON                          i04r02c02s08
 **    ****   ******    PROGRAM STARTED BY                               di38fab
 ***** **    ** ** **   PROGRAM PROCESS ID                               2958266
  **** **  *******  **  PROGRAM STARTED IN /hppfs/scratch/04/di38fab/05_MOL/W4-1
                                           1+ALK/cf2/aug-cc-pVTZ/TDDFT

 CP2K| version string:                 CP2K version 2025.1 (Development Version)
 CP2K| source code revision number:                             unknown revision
 CP2K| cp2kflags: omp libint fftw3 libxc parallel scalapack max_contr=4         
 CP2K| is freely available from                            https://www.cp2k.org/
 CP2K| Program compiled at                         Thu Apr 10 16:20:23 CEST 2025
 CP2K| Program compiled on                                               login01
 CP2K| Program compiled for                                        Supermuc-foss
 CP2K| Data directory path                  /hppfs/work/pn36zo/di38fab/cp2k/data
 CP2K| Input file name                                                    GW.inp

 GLOBAL| Force Environment number                                              1
 GLOBAL| Basis set file name            /hppfs/scratch/04/di38fab/04_TMD/BASIS_A
 GLOBAL| Potential file name            /hppfs/work/pn36zo/di38fab/cp2k/data/ALL
 GLOBAL| MM Potential file name                                     MM_POTENTIAL
 GLOBAL| Coordinate file name                                      __STD_INPUT__
 GLOBAL| Method name                                                        CP2K
 GLOBAL| Project name                                                       MoS2
 GLOBAL| Run type                                                         ENERGY
 GLOBAL| FFT library                                                       FFTW3
 GLOBAL| Diagonalization library                                       ScaLAPACK
 GLOBAL| DGEMM library                                                      BLAS
 GLOBAL| Orthonormality check for eigenvectors                          DISABLED
 GLOBAL| Matrix multiplication library                                 ScaLAPACK
 GLOBAL| All-to-all communication in single precision                          F
 GLOBAL| FFTs using library dependent lengths                                  F
 GLOBAL| Grid backend                                                       AUTO
 GLOBAL| Global print level                                               MEDIUM
 GLOBAL| MPI I/O enabled                                                       T
 GLOBAL| Total number of message passing processes                            96
 GLOBAL| Number of threads for this process                                    4
 GLOBAL| This output is from process                                           0
 GLOBAL| OpenMP stack size per thread (OMP_STACKSIZE)                    default
 GLOBAL| CPU model name             Intel(R) Xeon(R) Platinum 8174 CPU @ 3.10GHz

 MEMORY| system memory details [Kb]
 MEMORY|                        rank 0           min           max       average
 MEMORY| MemTotal             98436664      98433628      98436708      98436295
 MEMORY| MemFree              83574548      83574548      84537628      84052681
 MEMORY| Buffers                     0             0             0             0
 MEMORY| Cached                2424392       2389752       2424392       2407773
 MEMORY| Slab                  1224904       1161748       1246672       1218619
 MEMORY| SReclaimable           270588        262216        277680        270977
 MEMORY| MemLikelyFree        86269528      86269528      87215840      86731431


 *** Fundamental physical constants (SI units) ***

 *** Literature: B. J. Mohr and B. N. Taylor,
 ***             CODATA recommended values of the fundamental physical
 ***             constants: 2006, Web Version 5.1
 ***             http://physics.nist.gov/constants

 Speed of light in vacuum [m/s]                             2.99792458000000E+08
 Magnetic constant or permeability of vacuum [N/A**2]       1.25663706143592E-06
 Electric constant or permittivity of vacuum [F/m]          8.85418781762039E-12
 Planck constant (h) [J*s]                                  6.62606896000000E-34
 Planck constant (h-bar) [J*s]                              1.05457162825177E-34
 Elementary charge [C]                                      1.60217648700000E-19
 Electron mass [kg]                                         9.10938215000000E-31
 Electron g factor [ ]                                     -2.00231930436220E+00
 Proton mass [kg]                                           1.67262163700000E-27
 Fine-structure constant                                    7.29735253760000E-03
 Rydberg constant [1/m]                                     1.09737315685270E+07
 Avogadro constant [1/mol]                                  6.02214179000000E+23
 Boltzmann constant [J/K]                                   1.38065040000000E-23
 Atomic mass unit [kg]                                      1.66053878200000E-27
 Bohr radius [m]                                            5.29177208590000E-11

 *** Conversion factors ***

 [u] -> [a.u.]                                              1.82288848426455E+03
 [Angstrom] -> [Bohr] = [a.u.]                              1.88972613288564E+00
 [a.u.] = [Bohr] -> [Angstrom]                              5.29177208590000E-01
 [a.u.] -> [s]                                              2.41888432650478E-17
 [a.u.] -> [fs]                                             2.41888432650478E-02
 [a.u.] -> [J]                                              4.35974393937059E-18
 [a.u.] -> [N]                                              8.23872205491840E-08
 [a.u.] -> [K]                                              3.15774647902944E+05
 [a.u.] -> [kJ/mol]                                         2.62549961709828E+03
 [a.u.] -> [kcal/mol]                                       6.27509468713739E+02
 [a.u.] -> [Pa]                                             2.94210107994716E+13
 [a.u.] -> [bar]                                            2.94210107994716E+08
 [a.u.] -> [atm]                                            2.90362800883016E+08
 [a.u.] -> [eV]                                             2.72113838565563E+01
 [a.u.] -> [Hz]                                             6.57968392072181E+15
 [a.u.] -> [1/cm] (wave numbers)                            2.19474631370540E+05
 [a.u./Bohr**2] -> [1/cm]                                   5.14048714338585E+03
 

 CELL_TOP| Volume [angstrom^3]:                                     27000.000000
 CELL_TOP| Vector a [angstrom    30.000     0.000     0.000   |a| =    30.000000
 CELL_TOP| Vector b [angstrom     0.000    30.000     0.000   |b| =    30.000000
 CELL_TOP| Vector c [angstrom     0.000     0.000    30.000   |c| =    30.000000
 CELL_TOP| Angle (b,c), alpha [degree]:                                90.000000
 CELL_TOP| Angle (a,c), beta  [degree]:                                90.000000
 CELL_TOP| Angle (a,b), gamma [degree]:                                90.000000
 CELL_TOP| Numerically orthorhombic:                                         YES
 CELL_TOP| Periodicity                                                      NONE

 GENERATE|  Preliminary Number of Bonds generated:                             0
 GENERATE|  Achieved consistency in connectivity generation.

 CELL| Volume [angstrom^3]:                                         27000.000000
 CELL| Vector a [angstrom]:      30.000     0.000     0.000   |a| =    30.000000
 CELL| Vector b [angstrom]:       0.000    30.000     0.000   |b| =    30.000000
 CELL| Vector c [angstrom]:       0.000     0.000    30.000   |c| =    30.000000
 CELL| Angle (b,c), alpha [degree]:                                    90.000000
 CELL| Angle (a,c), beta  [degree]:                                    90.000000
 CELL| Angle (a,b), gamma [degree]:                                    90.000000
 CELL| Numerically orthorhombic:                                             YES
 CELL| Periodicity                                                          NONE

 CELL_REF| Volume [angstrom^3]:                                     27000.000000
 CELL_REF| Vector a [angstrom    30.000     0.000     0.000   |a| =    30.000000
 CELL_REF| Vector b [angstrom     0.000    30.000     0.000   |b| =    30.000000
 CELL_REF| Vector c [angstrom     0.000     0.000    30.000   |c| =    30.000000
 CELL_REF| Angle (b,c), alpha [degree]:                                90.000000
 CELL_REF| Angle (a,c), beta  [degree]:                                90.000000
 CELL_REF| Angle (a,b), gamma [degree]:                                90.000000
 CELL_REF| Numerically orthorhombic:                                         YES
 CELL_REF| Periodicity                                                      NONE

 *******************************************************************************
 *******************************************************************************
 **                                                                           **
 **     #####                         ##              ##                      **
 **    ##   ##            ##          ##              ##                      **
 **   ##     ##                       ##            ######                    **
 **   ##     ##  ##   ##  ##   #####  ##  ##   ####   ##    #####    #####    **
 **   ##     ##  ##   ##  ##  ##      ## ##   ##      ##   ##   ##  ##   ##   **
 **   ##  ## ##  ##   ##  ##  ##      ####     ###    ##   ######   ######    **
 **    ##  ###   ##   ##  ##  ##      ## ##      ##   ##   ##       ##        **
 **     #######   #####   ##   #####  ##  ##  ####    ##    #####   ##        **
 **           ##                                                    ##        **
 **                                                                           **
 **                                                ... make the atoms dance   **
 **                                                                           **
 **            Copyright (C) by CP2K developers group (2000-2025)             **
 **                      J. Chem. Phys. 152, 194103 (2020)                    **
 **                                                                           **
 *******************************************************************************

 DFT| Spin restricted Kohn-Sham (RKS) calculation                            RKS
 DFT| Multiplicity                                                             1
 DFT| Number of spin states                                                    1
 DFT| Charge                                                                   0
 DFT| Self-interaction correction (SIC)                                       NO
 DFT| Cutoffs: density                                              1.000000E-10
 DFT|          gradient                                             1.000000E-10
 DFT|          tau                                                  1.000000E-10
 DFT|          cutoff_smoothing_range                               0.000000E+00
 DFT| XC density smoothing                                                  NONE
 DFT| XC derivatives                                                          PW

 FUNCTIONAL| PBE:
 FUNCTIONAL| J.P.Perdew, K.Burke, M.Ernzerhof, Phys. Rev. Letter, vol. 77, n 18,
 FUNCTIONAL|  pp. 3865-3868, (1996)sx=0.750sc=1.000{spin unpolarized}           


 QS| Method:                                                                GAPW
 QS| Density plane wave grid type                        NON-SPHERICAL FULLSPACE
 QS| Number of grid levels:                                                    4
 QS| Density cutoff [a.u.]:                                                250.0
 QS| Multi grid cutoff [a.u.]: 1) grid level                               250.0
 QS|                           2) grid level                                83.3
 QS|                           3) grid level                                27.8
 QS|                           4) grid level                                 9.3
 QS| Grid level progression factor:                                          3.0
 QS| Relative density cutoff [a.u.]:                                        50.0
 QS| Interaction thresholds: eps_pgf_orb:                                1.0E-12
 QS|                         eps_filter_matrix:                          0.0E+00
 QS|                         eps_core_charge:                            1.0E-14
 QS|                         eps_rho_gspace:                             1.0E-12
 QS|                         eps_rho_rspace:                             1.0E-12
 QS|                         eps_gvg_rspace:                             1.0E-06
 QS|                         eps_ppl:                                    1.0E-02
 QS|                         eps_ppnl:                                   1.0E-08
 QS| GAPW|      One center basis from orbital basis primitives
 QS| GAPW|                   eps_fit:                                    1.0E-04
 QS| GAPW|                   eps_iso:                                    1.0E-12
 QS| GAPW|                   eps_svd:                                    1.0E-08
 QS| GAPW|                   eps_cpc:                                    1.0E-12
 QS| GAPW|   atom-r-grid: quadrature:                                     GC_LOG
 QS| GAPW|      atom-s-grid:  max l :                                          6
 QS| GAPW|      max_l_rho0 :                                                   2


 ATOMIC KIND INFORMATION

  1. Atomic kind: C                                     Number of atoms:       1

     Orbital Basis Set                                               aug-cc-pVTZ

       Number of orbital shell sets:                                           8
       Number of orbital shells:                                              14
       Number of primitive Cartesian functions:                               22
       Number of Cartesian basis functions:                                   55
       Number of spherical basis functions:                                   46
       Norm type:                                                              2

       Normalised Cartesian orbitals:

                        Set   Shell   Orbital            Exponent    Coefficient

                          1       1    1px               0.035690       0.022112
                          1       1    1py               0.035690       0.022112
                          1       1    1pz               0.035690       0.022112

                          2       1    1s                0.044020       0.068493

                          3       1    1dx2              0.100000       0.029269
                          3       1    1dxy              0.100000       0.050696
                          3       1    1dxz              0.100000       0.050696
                          3       1    1dy2              0.100000       0.029269
                          3       1    1dyz              0.100000       0.050696
                          3       1    1dz2              0.100000       0.029269

                          4       1    1px              18.710000       0.000000
                                                         4.133000       0.000000
                                                         1.200000       0.000000
                                                         0.382700       0.429055
                                                         0.120900       0.000000
                          4       1    1py              18.710000       0.000000
                                                         4.133000       0.000000
                                                         1.200000       0.000000
                                                         0.382700       0.429055
                                                         0.120900       0.000000
                          4       1    1pz              18.710000       0.000000
                                                         4.133000       0.000000
                                                         1.200000       0.000000
                                                         0.382700       0.429055
                                                         0.120900       0.000000

                          4       2    2px              18.710000       0.778253
                                                         4.133000       0.729662
                                                         1.200000       0.519563
                                                         0.382700       0.214960
                                                         0.120900       0.034896
                          4       2    2py              18.710000       0.778253
                                                         4.133000       0.729662
                                                         1.200000       0.519563
                                                         0.382700       0.214960
                                                         0.120900       0.034896
                          4       2    2pz              18.710000       0.778253
                                                         4.133000       0.729662
                                                         1.200000       0.519563
                                                         0.382700       0.214960
                                                         0.120900       0.034896

                          4       3    3px              18.710000       0.000000
                                                         4.133000       0.000000
                                                         1.200000       0.000000
                                                         0.382700       0.000000
                                                         0.120900       0.101619
                          4       3    3py              18.710000       0.000000
                                                         4.133000       0.000000
                                                         1.200000       0.000000
                                                         0.382700       0.000000
                                                         0.120900       0.101619
                          4       3    3pz              18.710000       0.000000
                                                         4.133000       0.000000
                                                         1.200000       0.000000
                                                         0.382700       0.000000
                                                         0.120900       0.101619

                          5       1    1s             8236.000000       0.327184
                                                      1235.000000       0.609945
                                                       280.800000       1.030914
                                                        79.270000       1.549802
                                                        25.590000       1.904111
                                                         8.997000       1.608326
                                                         3.319000       0.606601
                                                         0.905900       0.026060
                                                         0.364300      -0.003002
                                                         0.128500       0.000365

                          5       2    2s             8236.000000       0.000000
                                                      1235.000000       0.000000
                                                       280.800000       0.000000
                                                        79.270000       0.000000
                                                        25.590000       0.000000
                                                         8.997000       0.000000
                                                         3.319000       0.000000
                                                         0.905900       0.661790
                                                         0.364300       0.000000
                                                         0.128500       0.000000

                          5       3    3s             8236.000000      -0.069627
                                                      1235.000000      -0.130363
                                                       280.800000      -0.221954
                                                        79.270000      -0.343330
                                                        25.590000      -0.452153
                                                         8.997000      -0.469816
                                                         3.319000      -0.298547
                                                         0.905900       0.092903
                                                         0.364300       0.200079
                                                         0.128500       0.060480

                          5       4    4s             8236.000000       0.000000
                                                      1235.000000       0.000000
                                                       280.800000       0.000000
                                                        79.270000       0.000000
                                                        25.590000       0.000000
                                                         8.997000       0.000000
                                                         3.319000       0.000000
                                                         0.905900       0.000000
                                                         0.364300       0.000000
                                                         0.128500       0.152963

                          6       1    1fx3              0.268000       0.076078
                          6       1    1fx2y             0.268000       0.170115
                          6       1    1fx2z             0.268000       0.170115
                          6       1    1fxy2             0.268000       0.170115
                          6       1    1fxyz             0.268000       0.294648
                          6       1    1fxz2             0.268000       0.170115
                          6       1    1fy3              0.268000       0.076078
                          6       1    1fy2z             0.268000       0.170115
                          6       1    1fyz2             0.268000       0.170115
                          6       1    1fz3              0.268000       0.076078

                          7       1    1dx2              1.097000       1.935401
                                                         0.318000       0.000000
                          7       1    1dxy              1.097000       3.352214
                                                         0.318000       0.000000
                          7       1    1dxz              1.097000       3.352214
                                                         0.318000       0.000000
                          7       1    1dy2              1.097000       1.935401
                                                         0.318000       0.000000
                          7       1    1dyz              1.097000       3.352214
                                                         0.318000       0.000000
                          7       1    1dz2              1.097000       1.935401
                                                         0.318000       0.000000

                          7       2    2dx2              1.097000       0.000000
                                                         0.318000       0.221644
                          7       2    2dxy              1.097000       0.000000
                                                         0.318000       0.383899
                          7       2    2dxz              1.097000       0.000000
                                                         0.318000       0.383899
                          7       2    2dy2              1.097000       0.000000
                                                         0.318000       0.221644
                          7       2    2dyz              1.097000       0.000000
                                                         0.318000       0.383899
                          7       2    2dz2              1.097000       0.000000
                                                         0.318000       0.221644

                          8       1    1fx3              0.761000       0.796288
                          8       1    1fx2y             0.761000       1.780553
                          8       1    1fx2z             0.761000       1.780553
                          8       1    1fxy2             0.761000       1.780553
                          8       1    1fxyz             0.761000       3.084008
                          8       1    1fxz2             0.761000       1.780553
                          8       1    1fy3              0.761000       0.796288
                          8       1    1fy2z             0.761000       1.780553
                          8       1    1fyz2             0.761000       1.780553
                          8       1    1fz3              0.761000       0.796288

     RI Auxiliary Basis Set                                    aug-cc-pVTZ-OPTRI

       Number of orbital shell sets:                                          18
       Number of orbital shells:                                              18
       Number of primitive Cartesian functions:                               18
       Number of Cartesian basis functions:                                  103
       Number of spherical basis functions:                                   78
       Norm type:                                                              2

       Normalised Cartesian orbitals:

                        Set   Shell   Orbital            Exponent    Coefficient

                          1       1    1px               0.053629       0.036787
                          1       1    1py               0.053629       0.036787
                          1       1    1pz               0.053629       0.036787

                          2       1    1s                0.071296       0.098335

                          3       1    1dx2              0.149738       0.059325
                          3       1    1dxy              0.149738       0.102755
                          3       1    1dxz              0.149738       0.102755
                          3       1    1dy2              0.149738       0.059325
                          3       1    1dyz              0.149738       0.102755
                          3       1    1dz2              0.149738       0.059325

                          4       1    1px               0.180551       0.167761
                          4       1    1py               0.180551       0.167761
                          4       1    1pz               0.180551       0.167761

                          5       1    1s                0.347160       0.322335

                          6       1    1dx2              0.499205       0.487975
                          6       1    1dxy              0.499205       0.845198
                          6       1    1dxz              0.499205       0.845198
                          6       1    1dy2              0.499205       0.487975
                          6       1    1dyz              0.499205       0.845198
                          6       1    1dz2              0.499205       0.487975

                          7       1    1fx3              0.506969       0.319273
                          7       1    1fx2y             0.506969       0.713917
                          7       1    1fx2z             0.506969       0.713917
                          7       1    1fxy2             0.506969       0.713917
                          7       1    1fxyz             0.506969       1.236540
                          7       1    1fxz2             0.506969       0.713917
                          7       1    1fy3              0.506969       0.319273
                          7       1    1fy2z             0.506969       0.713917
                          7       1    1fyz2             0.506969       0.713917
                          7       1    1fz3              0.506969       0.319273

                          8       1    1px               0.571981       0.709034
                          8       1    1py               0.571981       0.709034
                          8       1    1pz               0.571981       0.709034

                          9       1    1gx4              0.583231       0.252637
                          9       1    1gx3y             0.583231       0.668415
                          9       1    1gx3z             0.583231       0.668415
                          9       1    1gx2y2            0.583231       0.862920
                          9       1    1gx2yz            0.583231       1.494621
                          9       1    1gx2z2            0.583231       0.862920
                          9       1    1gxy3             0.583231       0.668415
                          9       1    1gxy2z            0.583231       1.494621
                          9       1    1gxyz2            0.583231       1.494621
                          9       1    1gxz3             0.583231       0.668415
                          9       1    1gy4              0.583231       0.252637
                          9       1    1gy3z             0.583231       0.668415
                          9       1    1gy2z2            0.583231       0.862920
                          9       1    1gyz3             0.583231       0.668415
                          9       1    1gz4              0.583231       0.252637

                         10       1    1px               1.079380       1.568224
                         10       1    1py               1.079380       1.568224
                         10       1    1pz               1.079380       1.568224

                         11       1    1s                1.350899       0.893053

                         12       1    1fx3              1.360408       2.942457
                         12       1    1fx2y             1.360408       6.579533
                         12       1    1fx2z             1.360408       6.579533
                         12       1    1fxy2             1.360408       6.579533
                         12       1    1fxyz             1.360408      11.396086
                         12       1    1fxz2             1.360408       6.579533
                         12       1    1fy3              1.360408       2.942457
                         12       1    1fy2z             1.360408       6.579533
                         12       1    1fyz2             1.360408       6.579533
                         12       1    1fz3              1.360408       2.942457

                         13       1    1gx4              1.603084       4.074414
                         13       1    1gx3y             1.603084      10.779887
                         13       1    1gx3z             1.603084      10.779887
                         13       1    1gx2y2            1.603084      13.916774
                         13       1    1gx2yz            1.603084      24.104560
                         13       1    1gx2z2            1.603084      13.916774
                         13       1    1gxy3             1.603084      10.779887
                         13       1    1gxy2z            1.603084      24.104560
                         13       1    1gxyz2            1.603084      24.104560
                         13       1    1gxz3             1.603084      10.779887
                         13       1    1gy4              1.603084       4.074414
                         13       1    1gy3z             1.603084      10.779887
                         13       1    1gy2z2            1.603084      13.916774
                         13       1    1gyz3             1.603084      10.779887
                         13       1    1gz4              1.603084       4.074414

                         14       1    1dx2              2.042078       5.741641
                         14       1    1dxy              2.042078       9.944814
                         14       1    1dxz              2.042078       9.944814
                         14       1    1dy2              2.042078       5.741641
                         14       1    1dyz              2.042078       9.944814
                         14       1    1dz2              2.042078       5.741641

                         15       1    1px               3.363437       6.492608
                         15       1    1py               3.363437       6.492608
                         15       1    1pz               3.363437       6.492608

                         16       1    1fx3              3.489720      24.503790
                         16       1    1fx2y             3.489720      54.792140
                         16       1    1fx2z             3.489720      54.792140
                         16       1    1fxy2             3.489720      54.792140
                         16       1    1fxyz             3.489720      94.902770
                         16       1    1fxz2             3.489720      54.792140
                         16       1    1fy3              3.489720      24.503790
                         16       1    1fy2z             3.489720      54.792140
                         16       1    1fyz2             3.489720      54.792140
                         16       1    1fz3              3.489720      24.503790

                         17       1    1s                3.964205       2.002291

                         18       1    1dx2              4.948435      27.022668
                         18       1    1dxy              4.948435      46.804634
                         18       1    1dxz              4.948435      46.804634
                         18       1    1dy2              4.948435      27.022668
                         18       1    1dyz              4.948435      46.804634
                         18       1    1dz2              4.948435      27.022668

       Atomic covalent radius [Angstrom]:                                  0.770

       Atomic van der Waals radius [Angstrom]:                             1.700

     The atoms of this atomic kind are PAW atoms (GAPW):
       Hard Gaussian function radius:                                      1.512
       Rho0 radius:                                                        1.512
       Maximum GTO radius used for PAW projector construction:            24.566

     GAPW Soft Basis Set                                        aug-cc-pVTZ_soft

       Number of orbital shell sets:                                           8
       Number of orbital shells:                                              14
       Number of primitive Cartesian functions:                               15
       Number of Cartesian basis functions:                                   55
       Number of spherical basis functions:                                   46
       Norm type:                                                              2

       Normalised Cartesian orbitals:

                        Set   Shell   Orbital            Exponent    Coefficient

                          1       1    1px               0.035690       0.022112
                          1       1    1py               0.035690       0.022112
                          1       1    1pz               0.035690       0.022112

                          2       1    1s                0.044020       0.068493

                          3       1    1dx2              0.100000       0.029269
                          3       1    1dxy              0.100000       0.050696
                          3       1    1dxz              0.100000       0.050696
                          3       1    1dy2              0.100000       0.029269
                          3       1    1dyz              0.100000       0.050696
                          3       1    1dz2              0.100000       0.029269

                          4       1    1px               4.133000       0.000000
                                                         1.200000       0.000000
                                                         0.382700       0.429055
                                                         0.120900       0.000000
                          4       1    1py               4.133000       0.000000
                                                         1.200000       0.000000
                                                         0.382700       0.429055
                                                         0.120900       0.000000
                          4       1    1pz               4.133000       0.000000
                                                         1.200000       0.000000
                                                         0.382700       0.429055
                                                         0.120900       0.000000

                          4       2    2px               4.133000       0.729662
                                                         1.200000       0.519563
                                                         0.382700       0.214960
                                                         0.120900       0.034896
                          4       2    2py               4.133000       0.729662
                                                         1.200000       0.519563
                                                         0.382700       0.214960
                                                         0.120900       0.034896
                          4       2    2pz               4.133000       0.729662
                                                         1.200000       0.519563
                                                         0.382700       0.214960
                                                         0.120900       0.034896

                          4       3    3px               4.133000       0.000000
                                                         1.200000       0.000000
                                                         0.382700       0.000000
                                                         0.120900       0.101619
                          4       3    3py               4.133000       0.000000
                                                         1.200000       0.000000
                                                         0.382700       0.000000
                                                         0.120900       0.101619
                          4       3    3pz               4.133000       0.000000
                                                         1.200000       0.000000
                                                         0.382700       0.000000
                                                         0.120900       0.101619

                          5       1    1s                3.319000       0.606601
                                                         0.905900       0.026060
                                                         0.364300      -0.003002
                                                         0.128500       0.000365

                          5       2    2s                3.319000       0.000000
                                                         0.905900       0.661790
                                                         0.364300       0.000000
                                                         0.128500       0.000000

                          5       3    3s                3.319000      -0.298547
                                                         0.905900       0.092903
                                                         0.364300       0.200079
                                                         0.128500       0.060480

                          5       4    4s                3.319000       0.000000
                                                         0.905900       0.000000
                                                         0.364300       0.000000
                                                         0.128500       0.152963

                          6       1    1fx3              0.268000       0.076078
                          6       1    1fx2y             0.268000       0.170115
                          6       1    1fx2z             0.268000       0.170115
                          6       1    1fxy2             0.268000       0.170115
                          6       1    1fxyz             0.268000       0.294648
                          6       1    1fxz2             0.268000       0.170115
                          6       1    1fy3              0.268000       0.076078
                          6       1    1fy2z             0.268000       0.170115
                          6       1    1fyz2             0.268000       0.170115
                          6       1    1fz3              0.268000       0.076078

                          7       1    1dx2              1.097000       1.935401
                                                         0.318000       0.000000
                          7       1    1dxy              1.097000       3.352214
                                                         0.318000       0.000000
                          7       1    1dxz              1.097000       3.352214
                                                         0.318000       0.000000
                          7       1    1dy2              1.097000       1.935401
                                                         0.318000       0.000000
                          7       1    1dyz              1.097000       3.352214
                                                         0.318000       0.000000
                          7       1    1dz2              1.097000       1.935401
                                                         0.318000       0.000000

                          7       2    2dx2              1.097000       0.000000
                                                         0.318000       0.221644
                          7       2    2dxy              1.097000       0.000000
                                                         0.318000       0.383899
                          7       2    2dxz              1.097000       0.000000
                                                         0.318000       0.383899
                          7       2    2dy2              1.097000       0.000000
                                                         0.318000       0.221644
                          7       2    2dyz              1.097000       0.000000
                                                         0.318000       0.383899
                          7       2    2dz2              1.097000       0.000000
                                                         0.318000       0.221644

                          8       1    1fx3              0.761000       0.796288
                          8       1    1fx2y             0.761000       1.780553
                          8       1    1fx2z             0.761000       1.780553
                          8       1    1fxy2             0.761000       1.780553
                          8       1    1fxyz             0.761000       3.084008
                          8       1    1fxz2             0.761000       1.780553
                          8       1    1fy3              0.761000       0.796288
                          8       1    1fy2z             0.761000       1.780553
                          8       1    1fyz2             0.761000       1.780553
                          8       1    1fz3              0.761000       0.796288

     AE Potential information for                                            ALL

       Description:                                       All-electron potential
                                          Krack, Parrinello, PCCP 2, 2105 (2000)

       Gaussian exponent of the core charge distribution:               4.109048
       Electronic configuration (s p d ...):                           4   2   0

  2. Atomic kind: F                                     Number of atoms:       2

     Orbital Basis Set                                               aug-cc-pVTZ

       Number of orbital shell sets:                                           8
       Number of orbital shells:                                              14
       Number of primitive Cartesian functions:                               22
       Number of Cartesian basis functions:                                   55
       Number of spherical basis functions:                                   46
       Norm type:                                                              2

       Normalised Cartesian orbitals:

                        Set   Shell   Orbital            Exponent    Coefficient

                          1       1    1px               0.073610       0.054653
                          1       1    1py               0.073610       0.054653
                          1       1    1pz               0.073610       0.054653

                          2       1    1s                0.091580       0.118648

                          3       1    1px              43.880000       0.000000
                                                         9.926000       0.000000
                                                         2.930000       0.000000
                                                         0.913200       1.272470
                                                         0.267200       0.000000
                          3       1    1py              43.880000       0.000000
                                                         9.926000       0.000000
                                                         2.930000       0.000000
                                                         0.913200       1.272470
                                                         0.267200       0.000000
                          3       1    1pz              43.880000       0.000000
                                                         9.926000       0.000000
                                                         2.930000       0.000000
                                                         0.913200       1.272470
                                                         0.267200       0.000000

                          3       2    2px              43.880000       2.682741
                                                         9.926000       2.623662
                                                         2.930000       1.733564
                                                         0.913200       0.620129
                                                         0.267200       0.091626
                          3       2    2py              43.880000       2.682741
                                                         9.926000       2.623662
                                                         2.930000       1.733564
                                                         0.913200       0.620129
                                                         0.267200       0.091626
                          3       2    2pz              43.880000       2.682741
                                                         9.926000       2.623662
                                                         2.930000       1.733564
                                                         0.913200       0.620129
                                                         0.267200       0.091626

                          3       3    3px              43.880000       0.000000
                                                         9.926000       0.000000
                                                         2.930000       0.000000
                                                         0.913200       0.000000
                                                         0.267200       0.273833
                          3       3    3py              43.880000       0.000000
                                                         9.926000       0.000000
                                                         2.930000       0.000000
                                                         0.913200       0.000000
                                                         0.267200       0.273833
                          3       3    3pz              43.880000       0.000000
                                                         9.926000       0.000000
                                                         2.930000       0.000000
                                                         0.913200       0.000000
                                                         0.267200       0.273833

                          4       1    1dx2              0.292000       0.190910
                          4       1    1dxy              0.292000       0.330666
                          4       1    1dxz              0.292000       0.330666
                          4       1    1dy2              0.292000       0.190910
                          4       1    1dyz              0.292000       0.330666
                          4       1    1dz2              0.292000       0.190910

                          5       1    1s            19500.000000       0.596272
                                                      2923.000000       1.111476
                                                       664.500000       1.884225
                                                       187.500000       2.853273
                                                        60.620000       3.568027
                                                        21.420000       3.071739
                                                         7.950000       1.180889
                                                         2.257000       0.056738
                                                         0.881500      -0.005117
                                                         0.304100       0.000696

                          5       2    2s            19500.000000       0.000000
                                                      2923.000000       0.000000
                                                       664.500000       0.000000
                                                       187.500000       0.000000
                                                        60.620000       0.000000
                                                        21.420000       0.000000
                                                         7.950000       0.000000
                                                         2.257000       1.312377
                                                         0.881500       0.000000
                                                         0.304100       0.000000

                          5       3    3s            19500.000000      -0.137601
                                                      2923.000000      -0.258390
                                                       664.500000      -0.439994
                                                       187.500000      -0.689248
                                                        60.620000      -0.923674
                                                        21.420000      -0.993536
                                                         7.950000      -0.596518
                                                         2.257000       0.225237
                                                         0.881500       0.392295
                                                         0.304100       0.107845

                          5       4    4s            19500.000000       0.000000
                                                      2923.000000       0.000000
                                                       664.500000       0.000000
                                                       187.500000       0.000000
                                                        60.620000       0.000000
                                                        21.420000       0.000000
                                                         7.950000       0.000000
                                                         2.257000       0.000000
                                                         0.881500       0.000000
                                                         0.304100       0.291859

                          6       1    1fx3              0.724000       0.711814
                          6       1    1fx2y             0.724000       1.591663
                          6       1    1fx2z             0.724000       1.591663
                          6       1    1fxy2             0.724000       1.591663
                          6       1    1fxyz             0.724000       2.756842
                          6       1    1fxz2             0.724000       1.591663
                          6       1    1fy3              0.724000       0.711814
                          6       1    1fy2z             0.724000       1.591663
                          6       1    1fyz2             0.724000       1.591663
                          6       1    1fz3              0.724000       0.711814

                          7       1    1dx2              3.107000      11.967589
                                                         0.855000       0.000000
                          7       1    1dxy              3.107000      20.728471
                                                         0.855000       0.000000
                          7       1    1dxz              3.107000      20.728471
                                                         0.855000       0.000000
                          7       1    1dy2              3.107000      11.967589
                                                         0.855000       0.000000
                          7       1    1dyz              3.107000      20.728471
                                                         0.855000       0.000000
                          7       1    1dz2              3.107000      11.967589
                                                         0.855000       0.000000

                          7       2    2dx2              3.107000       0.000000
                                                         0.855000       1.251267
                          7       2    2dxy              3.107000       0.000000
                                                         0.855000       2.167259
                          7       2    2dxz              3.107000       0.000000
                                                         0.855000       2.167259
                          7       2    2dy2              3.107000       0.000000
                                                         0.855000       1.251267
                          7       2    2dyz              3.107000       0.000000
                                                         0.855000       2.167259
                          7       2    2dz2              3.107000       0.000000
                                                         0.855000       1.251267

                          8       1    1fx3              1.917000       6.365818
                          8       1    1fx2y             1.917000      14.234401
                          8       1    1fx2z             1.917000      14.234401
                          8       1    1fxy2             1.917000      14.234401
                          8       1    1fxyz             1.917000      24.654706
                          8       1    1fxz2             1.917000      14.234401
                          8       1    1fy3              1.917000       6.365818
                          8       1    1fy2z             1.917000      14.234401
                          8       1    1fyz2             1.917000      14.234401
                          8       1    1fz3              1.917000       6.365818

     RI Auxiliary Basis Set                                    aug-cc-pVTZ-OPTRI

       Number of orbital shell sets:                                          18
       Number of orbital shells:                                              18
       Number of primitive Cartesian functions:                               18
       Number of Cartesian basis functions:                                  103
       Number of spherical basis functions:                                   78
       Norm type:                                                              2

       Normalised Cartesian orbitals:

                        Set   Shell   Orbital            Exponent    Coefficient

                          1       1    1s                0.137301       0.160755

                          2       1    1px               0.151717       0.134969
                          2       1    1py               0.151717       0.134969
                          2       1    1pz               0.151717       0.134969

                          3       1    1px               0.404233       0.459441
                          3       1    1py               0.404233       0.459441
                          3       1    1pz               0.404233       0.459441

                          4       1    1dx2              0.438195       0.388443
                          4       1    1dxy              0.438195       0.672803
                          4       1    1dxz              0.438195       0.672803
                          4       1    1dy2              0.438195       0.388443
                          4       1    1dyz              0.438195       0.672803
                          4       1    1dz2              0.438195       0.388443

                          5       1    1fx3              1.080721       1.753113
                          5       1    1fx2y             1.080721       3.920081
                          5       1    1fx2z             1.080721       3.920081
                          5       1    1fxy2             1.080721       3.920081
                          5       1    1fxyz             1.080721       6.789779
                          5       1    1fxz2             1.080721       3.920081
                          5       1    1fy3              1.080721       1.753113
                          5       1    1fy2z             1.080721       3.920081
                          5       1    1fyz2             1.080721       3.920081
                          5       1    1fz3              1.080721       1.753113

                          6       1    1s                1.099688       0.765354

                          7       1    1gx4              1.357907       2.581238
                          7       1    1gx3y             1.357907       6.829313
                          7       1    1gx3z             1.357907       6.829313
                          7       1    1gx2y2            1.357907       8.816605
                          7       1    1gx2yz            1.357907      15.270808
                          7       1    1gx2z2            1.357907       8.816605
                          7       1    1gxy3             1.357907       6.829313
                          7       1    1gxy2z            1.357907      15.270808
                          7       1    1gxyz2            1.357907      15.270808
                          7       1    1gxz3             1.357907       6.829313
                          7       1    1gy4              1.357907       2.581238
                          7       1    1gy3z             1.357907       6.829313
                          7       1    1gy2z2            1.357907       8.816605
                          7       1    1gyz3             1.357907       6.829313
                          7       1    1gz4              1.357907       2.581238

                          8       1    1px               1.362993       2.099216
                          8       1    1py               1.362993       2.099216
                          8       1    1pz               1.362993       2.099216

                          9       1    1dx2              2.022714       5.646701
                          9       1    1dxy              2.022714       9.780373
                          9       1    1dxz              2.022714       9.780373
                          9       1    1dy2              2.022714       5.646701
                          9       1    1dyz              2.022714       9.780373
                          9       1    1dz2              2.022714       5.646701

                         10       1    1px               3.019615       5.673872
                         10       1    1py               3.019615       5.673872
                         10       1    1pz               3.019615       5.673872

                         11       1    1s                3.381420       1.777192

                         12       1    1gx4              4.053499      52.235784
                         12       1    1gx3y             4.053499     138.202894
                         12       1    1gx3z             4.053499     138.202894
                         12       1    1gx2y2            4.053499     178.419169
                         12       1    1gx2yz            4.053499     309.031066
                         12       1    1gx2z2            4.053499     178.419169
                         12       1    1gxy3             4.053499     138.202894
                         12       1    1gxy2z            4.053499     309.031066
                         12       1    1gxyz2            4.053499     309.031066
                         12       1    1gxz3             4.053499     138.202894
                         12       1    1gy4              4.053499      52.235784
                         12       1    1gy3z             4.053499     138.202894
                         12       1    1gy2z2            4.053499     178.419169
                         12       1    1gyz3             4.053499     138.202894
                         12       1    1gz4              4.053499      52.235784

                         13       1    1fx3              4.811831      50.483885
                         13       1    1fx2y             4.811831     112.885400
                         13       1    1fx2z             4.811831     112.885400
                         13       1    1fxy2             4.811831     112.885400
                         13       1    1fxyz             4.811831     195.523248
                         13       1    1fxz2             4.811831     112.885400
                         13       1    1fy3              4.811831      50.483885
                         13       1    1fy2z             4.811831     112.885400
                         13       1    1fyz2             4.811831     112.885400
                         13       1    1fz3              4.811831      50.483885

                         14       1    1dx2              5.699914      34.608198
                         14       1    1dxy              5.699914      59.943157
                         14       1    1dxz              5.699914      59.943157
                         14       1    1dy2              5.699914      34.608198
                         14       1    1dyz              5.699914      59.943157
                         14       1    1dz2              5.699914      34.608198

                         15       1    1px               7.665794      18.181785
                         15       1    1py               7.665794      18.181785
                         15       1    1pz               7.665794      18.181785

                         16       1    1fx3              9.812891     250.898256
                         16       1    1fx2y             9.812891     561.025556
                         16       1    1fx2z             9.812891     561.025556
                         16       1    1fxy2             9.812891     561.025556
                         16       1    1fxyz             9.812891     971.724768
                         16       1    1fxz2             9.812891     561.025556
                         16       1    1fy3              9.812891     250.898256
                         16       1    1fy2z             9.812891     561.025556
                         16       1    1fyz2             9.812891     561.025556
                         16       1    1fz3              9.812891     250.898256

                         17       1    1dx2             16.217768     215.721709
                         17       1    1dxy             16.217768     373.640960
                         17       1    1dxz             16.217768     373.640960
                         17       1    1dy2             16.217768     215.721709
                         17       1    1dyz             16.217768     373.640960
                         17       1    1dz2             16.217768     215.721709

                         18       1    1s               16.249086       5.768087

       Atomic covalent radius [Angstrom]:                                  0.720

       Atomic van der Waals radius [Angstrom]:                             1.470

     The atoms of this atomic kind are PAW atoms (GAPW):
       Hard Gaussian function radius:                                      1.512
       Rho0 radius:                                                        1.512
       Maximum GTO radius used for PAW projector construction:            24.566

     GAPW Soft Basis Set                                        aug-cc-pVTZ_soft

       Number of orbital shell sets:                                           8
       Number of orbital shells:                                              14
       Number of primitive Cartesian functions:                               13
       Number of Cartesian basis functions:                                   55
       Number of spherical basis functions:                                   46
       Norm type:                                                              2

       Normalised Cartesian orbitals:

                        Set   Shell   Orbital            Exponent    Coefficient

                          1       1    1px               0.073610       0.054653
                          1       1    1py               0.073610       0.054653
                          1       1    1pz               0.073610       0.054653

                          2       1    1s                0.091580       0.118648

                          3       1    1px               2.930000       0.000000
                                                         0.913200       1.272470
                                                         0.267200       0.000000
                          3       1    1py               2.930000       0.000000
                                                         0.913200       1.272470
                                                         0.267200       0.000000
                          3       1    1pz               2.930000       0.000000
                                                         0.913200       1.272470
                                                         0.267200       0.000000

                          3       2    2px               2.930000       1.733564
                                                         0.913200       0.620129
                                                         0.267200       0.091626
                          3       2    2py               2.930000       1.733564
                                                         0.913200       0.620129
                                                         0.267200       0.091626
                          3       2    2pz               2.930000       1.733564
                                                         0.913200       0.620129
                                                         0.267200       0.091626

                          3       3    3px               2.930000       0.000000
                                                         0.913200       0.000000
                                                         0.267200       0.273833
                          3       3    3py               2.930000       0.000000
                                                         0.913200       0.000000
                                                         0.267200       0.273833
                          3       3    3pz               2.930000       0.000000
                                                         0.913200       0.000000
                                                         0.267200       0.273833

                          4       1    1dx2              0.292000       0.190910
                          4       1    1dxy              0.292000       0.330666
                          4       1    1dxz              0.292000       0.330666
                          4       1    1dy2              0.292000       0.190910
                          4       1    1dyz              0.292000       0.330666
                          4       1    1dz2              0.292000       0.190910

                          5       1    1s                2.257000       0.056738
                                                         0.881500      -0.005117
                                                         0.304100       0.000696

                          5       2    2s                2.257000       1.312377
                                                         0.881500       0.000000
                                                         0.304100       0.000000

                          5       3    3s                2.257000       0.225237
                                                         0.881500       0.392295
                                                         0.304100       0.107845

                          5       4    4s                2.257000       0.000000
                                                         0.881500       0.000000
                                                         0.304100       0.291859

                          6       1    1fx3              0.724000       0.711814
                          6       1    1fx2y             0.724000       1.591663
                          6       1    1fx2z             0.724000       1.591663
                          6       1    1fxy2             0.724000       1.591663
                          6       1    1fxyz             0.724000       2.756842
                          6       1    1fxz2             0.724000       1.591663
                          6       1    1fy3              0.724000       0.711814
                          6       1    1fy2z             0.724000       1.591663
                          6       1    1fyz2             0.724000       1.591663
                          6       1    1fz3              0.724000       0.711814

                          7       1    1dx2              3.107000      11.967589
                                                         0.855000       0.000000
                          7       1    1dxy              3.107000      20.728471
                                                         0.855000       0.000000
                          7       1    1dxz              3.107000      20.728471
                                                         0.855000       0.000000
                          7       1    1dy2              3.107000      11.967589
                                                         0.855000       0.000000
                          7       1    1dyz              3.107000      20.728471
                                                         0.855000       0.000000
                          7       1    1dz2              3.107000      11.967589
                                                         0.855000       0.000000

                          7       2    2dx2              3.107000       0.000000
                                                         0.855000       1.251267
                          7       2    2dxy              3.107000       0.000000
                                                         0.855000       2.167259
                          7       2    2dxz              3.107000       0.000000
                                                         0.855000       2.167259
                          7       2    2dy2              3.107000       0.000000
                                                         0.855000       1.251267
                          7       2    2dyz              3.107000       0.000000
                                                         0.855000       2.167259
                          7       2    2dz2              3.107000       0.000000
                                                         0.855000       1.251267

                          8       1    1fx3              1.917000       6.365818
                          8       1    1fx2y             1.917000      14.234401
                          8       1    1fx2z             1.917000      14.234401
                          8       1    1fxy2             1.917000      14.234401
                          8       1    1fxyz             1.917000      24.654706
                          8       1    1fxz2             1.917000      14.234401
                          8       1    1fy3              1.917000       6.365818
                          8       1    1fy2z             1.917000      14.234401
                          8       1    1fyz2             1.917000      14.234401
                          8       1    1fz3              1.917000       6.365818

     AE Potential information for                                            ALL

       Description:                                       All-electron potential
                                          Krack, Parrinello, PCCP 2, 2105 (2000)

       Gaussian exponent of the core charge distribution:              10.470541
       Electronic configuration (s p d ...):                           4   5   0


 MOLECULE KIND INFORMATION


 All atoms are their own molecule, skipping detailed information


 TOTAL NUMBERS AND MAXIMUM NUMBERS

  Total number of            - Atomic kinds:                                   2
                             - Atoms:                                          3
                             - Shell sets:                                    24
                             - Shells:                                        42
                             - Primitive Cartesian functions:                 66
                             - Cartesian basis functions:                    165
                             - Spherical basis functions:                    138

  Maximum angular momentum of the orbital basis functions:                     3


 MODULE QUICKSTEP: ATOMIC COORDINATES IN ANGSTROM

   Atom Kind Element         X             Y             Z       Z(eff)     Mass
      1    1 C     6     15.000000     15.395508     15.000000   6.0000  12.0107
      2    2 F     9     13.972010     14.604492     15.000000   9.0000  18.9984
      3    2 F     9     16.027990     14.604492     15.000000   9.0000  18.9984



 SCF PARAMETERS         Density guess:                                    ATOMIC
                        --------------------------------------------------------
                        max_scf:                                             500
                        max_scf_history:                                       0
                        max_diis:                                              4
                        --------------------------------------------------------
                        eps_scf:                                        1.00E-06
                        eps_scf_history:                                0.00E+00
                        eps_diis:                                       1.00E-01
                        eps_eigval:                                     1.00E-05
                        --------------------------------------------------------
                        level_shift [a.u.]:                             0.000000
                        added MOs                                       126    0
                        --------------------------------------------------------
                        Mixing method:                            BROYDEN_MIXING
                                                charge density mixing in g-space
                        --------------------------------------------------------
                        No outer SCF

 PW_GRID| Information for grid number                                          1
 PW_GRID| Grid distributed over                                    96 processors
 PW_GRID| Real space group dimensions                                    96    1
 PW_GRID| the grid is blocked:                                                NO
 PW_GRID| Cutoff [a.u.]                                                    250.0
 PW_GRID| spherical cutoff:                                                   NO
 PW_GRID|   Bounds   1           -202     202                Points:         405
 PW_GRID|   Bounds   2           -202     202                Points:         405
[...]
 https://doi.org/10.1063/1.1558471

 M. Krack, M. Parrinello.
 Phys. Chem. Chem. Phys. 2, 2105-2112 (2000).
 All-electron ab-initio molecular dynamics.
 https://doi.org/10.1039/b001167n

 G. Lippert, J. Hutter, M. Parrinello.
 Theor. Chem. Acc. 103, 124-140 (1999).
 The Gaussian and augmented-plane-wave density functional method for ab initio 
 molecular dynamics simulations.
 https://doi.org/10.1007/s002140050523

 J. P. Perdew, K. Burke, M. Ernzerhof.
 Phys. Rev. Lett. 77, 3865-3868 (1996).
 Generalized gradient approximation made simple.
 https://doi.org/10.1103/PhysRevLett.77.3865


 -------------------------------------------------------------------------------
 -                                                                             -
 -                                T I M I N G                                  -
 -                                                                             -
 -------------------------------------------------------------------------------
 SUBROUTINE                       CALLS  ASD         SELF TIME        TOTAL TIME
                                MAXIMUM       AVERAGE  MAXIMUM  AVERAGE  MAXIMUM
 CP2K                                 1  1.0    0.025    0.038  391.380  391.380
 qs_energies                          1  2.0    0.001    0.001  390.226  390.226
 qs_energies_properties               1  3.0    0.000    0.000  289.083  289.083
 tddfpt                               1  4.0    0.000    0.001  289.083  289.083
 tddfpt_energies                      1  5.0    0.000    0.001  289.056  289.056
 tddfpt_davidson_solver               1  6.0    0.001    0.003  287.550  287.550
 tddfpt_compute_Aop_evects            9  7.0    0.000    0.000  285.639  285.639
 fhxc_kernel                          9  8.0    0.009    0.011  260.352  260.352
 fft_wrap_pw1pw2                   4748 11.2    0.096    0.133  145.606  149.518
 fft_wrap_pw1pw2_250               3338 12.2    5.802    7.334  140.180  143.221
 fft3d_ps                          4748 13.2   51.596   64.537  120.566  124.813
 pw_poisson_solve                   234  9.5    3.252    4.072  113.495  113.921
 tddfpt_apply_coulomb               180  9.0    0.004    0.005  105.039  105.511
 scf_env_do_scf                       1  3.0    0.000    0.000  100.324  100.328
 scf_env_do_scf_inner_loop           54  4.0    0.002    0.004  100.324  100.328
 qs_ks_update_qs_env                 54  5.0    0.000    0.000   76.157   76.169
 rebuild_ks_matrix                   54  6.0    0.000    0.000   76.151   76.164
 qs_ks_build_kohn_sham_matrix        54  7.0    0.008    0.009   76.151   76.164
 ps_wavelet_solve                   234 10.5   52.707   60.351   67.604   68.515
 mp_alltoall_z22v                  4748 15.2   58.796   64.314   58.796   64.314
 xc_pw_derive                      1407 11.0    0.016    0.020   62.990   63.531
 tddfpt_apply_xc_analytic           180  9.0    0.255    0.338   60.282   61.160
 qs_rho_update_rho_low              236  8.1    0.003    0.003   59.006   59.011
 calculate_rho_elec                 236  9.1    1.148    1.362   58.659   58.662
 mp_alltoall_d54                    234 11.5    8.460   52.014    8.460   52.014
 xc_pw_divergence                   234 10.8    0.010    0.012   42.758   43.335
 density_rs2pw                      236 10.1    0.015    0.018   39.484   41.063
 integrate_v_rspace                 234  9.0    0.005    0.007   39.348   39.554
 yz_to_x                           2114 14.5    3.672    4.356   34.433   37.888
 xc_calc_2nd_deriv_analytical       540 10.1    2.152    2.265   35.836   35.928
 x_to_yz                           2164 13.8    5.965    7.096   33.964   35.753
 potential_pw2rs                    234 10.0    0.081    0.088   33.706   33.931
 integrate_four_center              414  9.9    8.201   18.165   32.631   32.779
 transfer_pw2rs                    1171 10.9    0.018    0.023   27.350   27.785
 transfer_rs2pw                    1180 11.0    0.037    0.053   24.016   25.208
 tddfpt_apply_hfx                     9  8.0    0.003    0.004   24.526   24.526
 mp_sync                           2182 11.5   15.559   24.524   15.559   24.524
 mp_alltoall_d11v                 15644 11.7   17.092   23.322   17.092   23.322
 prepare_gapw_den                   235  8.8    0.004    0.004   22.706   23.025
 tddft_hfx_matrix                   360  9.0    0.009    0.014   22.356   22.469
 grid_collocate_task_list           236 10.1   17.028   19.910   17.028   19.910
 qs_vxc_create                       54  8.0    0.001    0.001   19.717   19.718
 xc_vxc_pw_create                    54  9.0    0.337    0.397   19.716   19.717
 put_rho0_on_grid                   235  9.8    1.158    1.401   19.289   19.610
 mp_waitany                       42330 12.9   18.148   19.460   18.148   19.460
 transfer_pw2rs_250                 469 11.8    5.950    6.302   15.683   16.088
 transfer_rs2pw_250                 472 11.9    5.950    6.487   14.284   15.439
 integrate_four_center_main         414 10.9    0.177   11.435    0.898   14.073
 integrate_four_center_bin        33041 11.9    0.721   13.896    0.721   13.896
 integrate_vhg0_rspace              234  9.5    0.268    0.315   12.006   12.154
 mp_alltoall_d45                    235 11.5    5.971   10.516    5.971   10.516
 hfx_ks_matrix                       54  8.0    0.002    0.002   10.286   10.326
 xc_rho_set_and_dset_create          55 10.0    0.250    0.296    9.222    9.977
 gspace_mixing                       53  5.0    0.258    0.306    9.421    9.422
 sum_up_and_integrate                54  8.0    0.001    0.001    8.635    8.662
 pw_gather_p                       2350 13.5    7.025    8.017    7.025    8.017
 pw_scatter_p                      2398 12.8    7.785    7.975    7.785    7.975
 mp_waitall_1                    276794 13.5    6.215    7.488    6.215    7.488
 transfer_pw2rs_30                  234 12.0    3.982    4.617    6.663    7.057
 broyden_mixing                      53  6.0    6.804    6.994    6.941    7.038
 pw_derive                         2109 11.8    6.215    6.729    6.215    6.729
 cp2k_distribution_to_z_slices      234 10.5    2.256    2.449    5.360    5.701
 rs_gather_matrices                 234 10.0    0.020    0.026    5.240    5.665
 grid_integrate_task_list           234 10.0    0.396    5.526    0.396    5.526
 mp_sum_d                          3920  7.8    4.286    5.374    4.286    5.374
 fft_wrap_pw1pw2_90                 470 12.0    0.158    0.231    4.094    5.264
 transfer_rs2pw_30                  236 12.1    2.234    2.353    5.199    5.264
 cp_dbcsr_sm_fm_multiply           1126  8.6    0.021    0.023    4.634    4.752
 calculate_xc_2nd_deriv_atom        180  9.0    0.055    1.131    0.183    4.650
 rs_grid_zero                      1173 12.0    4.153    4.406    4.153    4.406
 gaVxcgb_GC                         234  9.8    0.135    4.359    0.135    4.359
 transfer_pw2rs_90                  234 12.0    0.980    1.130    3.857    4.357
 transfer_rs2pw_90                  236 12.1    0.859    0.964    3.434    3.919
 pw_copy                           3155 11.0    3.570    3.800    3.570    3.800
 mp_sendrecv_dv                   44840 13.1    3.614    3.744    3.614    3.744
 pw_poisson_set                     235 10.5    0.008    0.010    3.621    3.714
 calc_screening_functions             1 10.0    2.518    2.666    3.523    3.671
 pw_copy_to_array                  2350 13.5    2.577    3.242    2.577    3.242
 calculate_rho_atom                 470  9.8    1.666    3.142    1.666    3.142
 mp_isendrecv_dv                 123120 12.3    1.341    3.060    1.341    3.060
 dbcsr_complete_redistribute       3699 10.5    0.138    0.234    2.778    2.885
 pw_axpy                           2528 10.9    2.437    2.710    2.437    2.710
 dbcsr_multiply_generic            1540 10.4    0.063    0.068    2.301    2.377
 xc_functional_eval                 523 10.9    0.001    0.003    1.647    2.361
 pbe_lda_eval                       523 11.9    1.646    2.358    1.646    2.358
 pw_integral_ab_c1d_c1d_gs          234 10.5    1.714    1.734    2.011    2.316
 mp_sum_dm                         2205 10.1    1.821    2.058    1.821    2.058
 pw_copy_from_array                2398 12.8    1.560    1.976    1.560    1.976
 pw_zero                           2670 10.6    1.787    1.962    1.787    1.962
 copy_fm_to_dbcsr                  2495  9.6    0.011    0.012    1.795    1.904
 copy_dbcsr_to_fm                  1202  9.4    0.015    0.016    1.871    1.902
 mp_sum_dv                        20302  8.9    1.776    1.891    1.776    1.891
 powell_optimize                 694278 11.0    1.718    1.814    1.718    1.814
 integrate_four_center_getP         414 10.9    0.068    0.075    1.743    1.757
 integrate_four_center_dist_KS      414 10.9    0.071    0.082    1.736    1.750
 cp_dbcsr_sm_fm_multiply_core      1126  9.6    0.003    0.003    1.611    1.677
 mp_isend_dv                     103164 13.9    1.057    1.514    1.057    1.514
 mp_isend_dm3                      8466 12.9    0.692    1.484    0.692    1.484
 multiply_cannon                   1540 11.4    0.146    0.152    1.293    1.372
 cp_fm_syevd                        105  7.2    0.001    0.001    1.276    1.279
 transfer_pw2rs_10                  234 12.0    0.429    0.476    1.129    1.215
 calculate_vxc_atom                  54  8.0    0.020    0.173    1.199    1.199
 mp_irecv_dm3                      8466 12.9    0.666    1.184    0.666    1.184
 cp_fm_redistribute_end             105  8.2    0.620    1.179    0.625    1.182
 Vh_1c_gg_integrals                 234  9.5    0.031    0.421    0.952    1.158
 qs_scf_new_mos                      54  5.0    0.001    0.001    1.133    1.138
 cp_fm_syevd_base                   105  8.2    0.554    1.111    0.554    1.111
 tddfpt_orthonormalize_psi1_psi      10  6.9    0.024    0.026    1.108    1.108
 calc_pair_dist_radii                 1 10.0    0.352    0.358    1.065    1.105
 transfer_rs2pw_10                  236 12.1    0.414    0.445    1.063    1.104
 mp_alltoall_i11v                 12300 11.5    1.078    1.080    1.078    1.080
 fft_wrap_pw1pw2_30                 470 12.0    0.030    0.034    0.886    1.032
 cp_dbcsr_plus_fm_fm_t              234  8.5    0.003    0.004    1.004    1.015
 multiply_cannon_loop              1540 12.4    0.234    0.247    0.904    0.979
 mp_max_i                           687  5.0    0.684    0.893    0.684    0.893
 eigensolver_symm                    54  6.0    0.002    0.002    0.827    0.829
 pw_poisson_rebuild                 234 10.5    0.000    0.000    0.812    0.825
 ps_wavelet_create                    1 10.0    0.000    0.000    0.812    0.825
 RS_z_slice_distribution              1 11.0    0.679    0.765    0.812    0.824
 create_qs_kind_set                   1  2.0    0.000    0.000    0.816    0.817
 read_qs_kind                         2  3.0    0.422    0.483    0.816    0.816
 tddfpt_print_nto_analysis            1  6.0    0.002    0.003    0.816    0.816
 offload_free_buffer                242 10.3    0.642    0.768    0.642    0.768
 dbcsr_desymmetrize_deep           1203 10.4    0.022    0.027    0.734    0.766
 prepare_dr1dr                      540 11.1    0.643    0.765    0.643    0.765
 tddfpt_apply_energy_diff             9  8.0    0.001    0.001    0.760    0.760
 make_m2s                          3080 11.4    0.048    0.054    0.658    0.757
 tddfpt_compute_residual_vects        8  7.0    0.001    0.001    0.677    0.677
 scale_and_distribute               468 11.5    0.599    0.676    0.599    0.676
 mp_alltoall_i22                   4902 11.5    0.507    0.641    0.507    0.641
 make_images                       3080 12.4    0.122    0.134    0.521    0.592
 parallel_gemm_fm                  1614  8.3    0.002    0.002    0.562    0.577
 parallel_gemm_fm_gemm             1614  9.3    0.002    0.002    0.560    0.575
 cp_fm_gemm                        1614 10.3    0.558    0.574    0.558    0.574
 cp_fm_geeig                         20  7.0    0.001    0.001    0.494    0.495
 init_scf_run                         1  3.0    0.000    0.000    0.408    0.409
 parser_read_line                 88667  4.0    0.031    0.034    0.394    0.398
 scf_env_initial_rho_setup            1  4.0    0.000    0.000    0.388    0.389
 hybrid_alltoall_any               4283 13.5    0.032    0.050    0.332    0.382
 fft_wrap_pw1pw2_10                 470 12.0    0.007    0.008    0.350    0.377
 parser_read_line_low                98  5.0    0.032    0.141    0.363    0.369
 mp_sum_l                          5880 10.6    0.301    0.367    0.301    0.367
 tddfpt_construct_ground_state_       1  6.0    0.000    0.000    0.350    0.353
 calculate_rho_atom_coeff           236  9.1    0.028    0.093    0.344    0.349
 broadcast_input_information         98  6.0    0.075    0.080    0.331    0.339
 cp_fm_trace_a1b1t1_aa            16500  8.0    0.077    0.083    0.333    0.335
 qs_energies_init_hamiltonians        1  3.0    0.000    0.000    0.332    0.332
 build_core_hamiltonian_matrix        1  4.0    0.000    0.000    0.325    0.325
 overlap_condnum                      1  5.0    0.000    0.000    0.323    0.324
 mp_rank_compare                   4748 14.2    0.279    0.299    0.279    0.299
 arnoldi_conjugate_gradient           5  6.0    0.008    0.009    0.285    0.285
 calculate_rho0_atom                470  9.8    0.268    0.280    0.268    0.280
 dbcsr_finalize                    8972 11.4    0.039    0.060    0.185    0.268
 qs_init_subsys                       1  2.0    0.004    0.005    0.267    0.268
 qs_env_setup                         1  3.0    0.000    0.000    0.249    0.252
 qs_env_rebuild_pw_env                2  3.5    0.000    0.000    0.248    0.250
 pw_env_rebuild                       1  5.0    0.001    0.001    0.247    0.250
 pw_scale                           576  9.5    0.207    0.248    0.207    0.248
 pw_grid_setup                        4  6.0    0.000    0.000    0.226    0.229
 pw_grid_setup_internal               4  7.0    0.006    0.008    0.226    0.229
 mp_alltoall_z11v                   470 15.0    0.205    0.228    0.205    0.228
 create_kernel_env                    1  6.0    0.000    0.000    0.203    0.227
 xc_prep_2nd_deriv                    1  7.0    0.000    0.000    0.203    0.227
 multiply_cannon_metrocomm3       36960 13.4    0.058    0.061    0.156    0.227
 integrate_four_center_load         414 10.9    0.001    0.002    0.164    0.223
 hfx_load_balance                     1 11.0    0.000    0.000    0.163    0.222
 mp_irecv_dv                     102503 13.9    0.105    0.216    0.105    0.216
 hfx_load_balance_range               1 12.0    0.000    0.001    0.155    0.215
 calculate_dm_sparse                 54  6.0    0.000    0.000    0.204    0.211
 mp_cart_sub                       2407 11.4    0.204    0.206    0.204    0.206
 update_ks_atom                     234  8.8    0.019    0.076    0.152    0.203
 multiply_cannon_metrocomm4       33880 13.4    0.100    0.106    0.187    0.201
 make_images_sizes                 3080 13.4    0.003    0.004    0.183    0.196
 mp_alltoall_i44                   3080 14.4    0.180    0.193    0.180    0.193
 multiply_cannon_metrocomm2       32340 13.4    0.097    0.103    0.171    0.188
 mp_cart_create                    1675 10.9    0.165    0.175    0.167    0.178
 dbcsr_sym_matrix_vector_mult      1090  7.0    0.017    0.019    0.121    0.176
 mp_bcast_i_src                     392  7.0    0.117    0.175    0.117    0.175
 mp_bcast_dm                       1404  9.8    0.133    0.167    0.133    0.167
 xc_2nd_deriv_of_r                  360 10.0    0.001    0.030    0.005    0.166
 multiply_cannon_metrocomm1       36960 13.4    0.041    0.042    0.100    0.165
 mp_bcast_am_src                     98  7.0    0.078    0.145    0.137    0.164
 dbcsr_create_new                 35994 11.8    0.118    0.123    0.154    0.160
 mp_allgather_i34                  1540 12.4    0.145    0.158    0.145    0.158
 pw_grid_sort                         4  8.0    0.107    0.109    0.156    0.158
 dbcsr_merge_all                   7184 12.5    0.081    0.110    0.106    0.155
 rs_grid_create                     240 10.4    0.001    0.002    0.014    0.154
 offload_create_buffer              242 11.4    0.012    0.153    0.012    0.153
 yz_to_xz                           234 14.0    0.013    0.014    0.131    0.152
 make_images_data                  3080 13.4    0.030    0.044    0.067    0.151
 dbcsr_special_finalize            7700 13.4    0.029    0.031    0.082    0.117
 rs_scatter_matrices                236 10.1    0.002    0.005    0.108    0.115
 tddfpt_compute_ritz_vects            9  7.0    0.007    0.008    0.112    0.112
 multiply_cannon_multrec          36960 13.4    0.048    0.097    0.055    0.105
 cp_fm_redistribute_start           105  8.2    0.078    0.080    0.097    0.104
 xz_to_yz                           236 14.1    0.009    0.010    0.096    0.102
 dbcsr_add_d                       1674  7.1    0.002    0.002    0.013    0.099
 dbcsr_add_anytype                 1674  8.1    0.002    0.013    0.012    0.097
 tddfpt_orthogonalize_psi1_psi0      10  6.9    0.000    0.000    0.086    0.097
 mixing_init                          1  5.0    0.079    0.083    0.082    0.083
 cp_fm_cholesky_decompose            20  8.0    0.082    0.083    0.082    0.083
 copy_fm_to_dbcsr_bc               2495 10.6    0.026    0.029    0.077    0.082
 dbcsr_iterator_start             38760 11.2    0.050    0.062    0.060    0.078
 scf_post_calculation_gpw             1  3.0    0.000    0.000    0.078    0.078
 write_available_results              1  4.0    0.000    0.000    0.077    0.077
 write_mo_free_results                1  5.0    0.006    0.008    0.077    0.077
 dbcsr_merge_single_wm             7700 14.4    0.037    0.046    0.043    0.076
 mp_bcast_iv                        105  7.6    0.059    0.076    0.059    0.076
 cp_fm_triangular_invert             20  8.0    0.074    0.074    0.074    0.074
 dbcsr_destroy                    33764 11.1    0.043    0.045    0.064    0.069
 dbcsr_work_create                16087 12.5    0.034    0.040    0.051    0.066
 dbcsr_copy                        8152  9.1    0.025    0.028    0.055    0.064
 dbcsr_col_vec_to_rep_row          1090  8.0    0.008    0.009    0.027    0.063
 dbcsr_data_new                  112771 12.7    0.053    0.063    0.053    0.063
 mp_isend_iv                      73506 14.4    0.052    0.060    0.052    0.060
 dbcsr_data_release              172621 12.6    0.049    0.059    0.049    0.059
 mp_bcast_iv_src                     98  7.0    0.002    0.057    0.002    0.057
 dbcsr_make_images_dense            828 11.7    0.014    0.016    0.040    0.056
 dbcsr_work_destroy_all           16087 13.5    0.030    0.037    0.041    0.051
 dbcsr_rep_row_to_rep_col_vec      1090  8.0    0.005    0.007    0.018    0.051
 sort_shells                          4  9.0    0.049    0.050    0.049    0.050
 dbcsr_iterator_stop              38760 11.2    0.034    0.041    0.042    0.050
 mp_bcast_dv                       1195  9.0    0.013    0.047    0.013    0.047
 xc_pw_smooth                        54 10.0    0.000    0.000    0.029    0.041
 -------------------------------------------------------------------------------

 The number of warnings for this run is : 1
 
 -------------------------------------------------------------------------------
  **** **** ******  **  PROGRAM ENDED AT                 2025-04-12 03:33:25.098
 ***** ** ***  *** **   PROGRAM RAN ON                              i04r02c02s08
 **    ****   ******    PROGRAM RAN BY                                   di38fab
 ***** **    ** ** **   PROGRAM PROCESS ID                               2958266
  **** **  *******  **  PROGRAM STOPPED IN /hppfs/scratch/04/di38fab/05_MOL/W4-1
                                           1+ALK/cf2/aug-cc-pVTZ/TDDFT
