 DBCSR| CPU Multiplication driver                                           BLAS (U)
 DBCSR| Multrec recursion limit                                              512 (U)
 DBCSR| Multiplication stack size                                           1000 (D)
 DBCSR| Maximum elements for images                                    UNLIMITED (U)
 DBCSR| Multiplicative factor virtual images                                   1 (U)
 DBCSR| Use multiplication densification                                       T (D)
 DBCSR| Multiplication size stacks                                             3 (U)
 DBCSR| Use memory pool for CPU allocation                                     F (U)
 DBCSR| Number of 3D layers                                               SINGLE (U)
 DBCSR| Use MPI memory allocation                                              F (U)
 DBCSR| Use RMA algorithm                                                      F (U)
 DBCSR| Use Communication thread                                               T (U)
 DBCSR| Communication thread load                                             45 (D)
 DBCSR| MPI: My process id                                                     0
 DBCSR| MPI: Number of processes                                             128
 DBCSR| OMP: Current number of threads                                        12
 DBCSR| OMP: Max number of threads                                            12
 DBCSR| Split modifier for TAS multiplication algorithm                  1.0E+00 (U)


  **** **** ******  **  PROGRAM STARTED AT               2025-04-14 09:12:02.406
 ***** ** ***  *** **   PROGRAM STARTED ON                          i03r05c02s07
 **    ****   ******    PROGRAM STARTED BY                               di38fab
 ***** **    ** ** **   PROGRAM PROCESS ID                               1906326
  **** **  *******  **  PROGRAM STARTED IN /hppfs/scratch/04/di38fab/05_MOL/aUKB
                                           qsEOTmq69kFe5R_nOg/5k_set_final_qzvp/
                                           TRDMPP01/aug-cc-pVQZ/TDDFT

 CP2K| version string:                 CP2K version 2025.1 (Development Version)
 CP2K| source code revision number:                             unknown revision
 CP2K| cp2kflags: omp libint fftw3 libxc parallel scalapack max_contr=4         
 CP2K| is freely available from                            https://www.cp2k.org/
 CP2K| Program compiled at                         Thu Apr 10 16:20:23 CEST 2025
 CP2K| Program compiled on                                               login01
 CP2K| Program compiled for                                        Supermuc-foss
 CP2K| Data directory path                  /hppfs/work/pn36zo/di38fab/cp2k/data
 CP2K| Input file name                                                    GW.inp

 GLOBAL| Force Environment number                                              1
 GLOBAL| Basis set file name            /hppfs/scratch/04/di38fab/04_TMD/BASIS_A
 GLOBAL| Potential file name            /hppfs/work/pn36zo/di38fab/cp2k/data/ALL
 GLOBAL| MM Potential file name                                     MM_POTENTIAL
 GLOBAL| Coordinate file name                                      __STD_INPUT__
 GLOBAL| Method name                                                        CP2K
 GLOBAL| Project name                                                       MoS2
 GLOBAL| Run type                                                         ENERGY
 GLOBAL| FFT library                                                       FFTW3
 GLOBAL| Diagonalization library                                       ScaLAPACK
 GLOBAL| DGEMM library                                                      BLAS
 GLOBAL| Orthonormality check for eigenvectors                          DISABLED
 GLOBAL| Matrix multiplication library                                 ScaLAPACK
 GLOBAL| All-to-all communication in single precision                          F
 GLOBAL| FFTs using library dependent lengths                                  F
 GLOBAL| Grid backend                                                       AUTO
 GLOBAL| Global print level                                               MEDIUM
 GLOBAL| MPI I/O enabled                                                       T
 GLOBAL| Total number of message passing processes                           128
 GLOBAL| Number of threads for this process                                   12
 GLOBAL| This output is from process                                           0
 GLOBAL| OpenMP stack size per thread (OMP_STACKSIZE)                    default
 GLOBAL| CPU model name             Intel(R) Xeon(R) Platinum 8174 CPU @ 3.10GHz

 MEMORY| system memory details [Kb]
 MEMORY|                        rank 0           min           max       average
 MEMORY| MemTotal             98436664      98436660      98436664      98436662
 MEMORY| MemFree              86114768      85845020      87206420      86183424
 MEMORY| Buffers                     0             0             0             0
 MEMORY| Cached                2338900       2229592       2346736       2326846
 MEMORY| Slab                  1074872        872420       1096560       1058188
 MEMORY| SReclaimable           255400        188568        264576        249160
 MEMORY| MemLikelyFree        88709068      88433384      89624580      88759430


 *** Fundamental physical constants (SI units) ***

 *** Literature: B. J. Mohr and B. N. Taylor,
 ***             CODATA recommended values of the fundamental physical
 ***             constants: 2006, Web Version 5.1
 ***             http://physics.nist.gov/constants

 Speed of light in vacuum [m/s]                             2.99792458000000E+08
 Magnetic constant or permeability of vacuum [N/A**2]       1.25663706143592E-06
 Electric constant or permittivity of vacuum [F/m]          8.85418781762039E-12
 Planck constant (h) [J*s]                                  6.62606896000000E-34
 Planck constant (h-bar) [J*s]                              1.05457162825177E-34
 Elementary charge [C]                                      1.60217648700000E-19
 Electron mass [kg]                                         9.10938215000000E-31
 Electron g factor [ ]                                     -2.00231930436220E+00
 Proton mass [kg]                                           1.67262163700000E-27
 Fine-structure constant                                    7.29735253760000E-03
 Rydberg constant [1/m]                                     1.09737315685270E+07
 Avogadro constant [1/mol]                                  6.02214179000000E+23
 Boltzmann constant [J/K]                                   1.38065040000000E-23
 Atomic mass unit [kg]                                      1.66053878200000E-27
 Bohr radius [m]                                            5.29177208590000E-11

 *** Conversion factors ***

 [u] -> [a.u.]                                              1.82288848426455E+03
 [Angstrom] -> [Bohr] = [a.u.]                              1.88972613288564E+00
 [a.u.] = [Bohr] -> [Angstrom]                              5.29177208590000E-01
 [a.u.] -> [s]                                              2.41888432650478E-17
 [a.u.] -> [fs]                                             2.41888432650478E-02
 [a.u.] -> [J]                                              4.35974393937059E-18
 [a.u.] -> [N]                                              8.23872205491840E-08
 [a.u.] -> [K]                                              3.15774647902944E+05
 [a.u.] -> [kJ/mol]                                         2.62549961709828E+03
 [a.u.] -> [kcal/mol]                                       6.27509468713739E+02
 [a.u.] -> [Pa]                                             2.94210107994716E+13
 [a.u.] -> [bar]                                            2.94210107994716E+08
 [a.u.] -> [atm]                                            2.90362800883016E+08
 [a.u.] -> [eV]                                             2.72113838565563E+01
 [a.u.] -> [Hz]                                             6.57968392072181E+15
 [a.u.] -> [1/cm] (wave numbers)                            2.19474631370540E+05
 [a.u./Bohr**2] -> [1/cm]                                   5.14048714338585E+03
 

 CELL_TOP| Volume [angstrom^3]:                                     27000.000000
 CELL_TOP| Vector a [angstrom    30.000     0.000     0.000   |a| =    30.000000
 CELL_TOP| Vector b [angstrom     0.000    30.000     0.000   |b| =    30.000000
 CELL_TOP| Vector c [angstrom     0.000     0.000    30.000   |c| =    30.000000
 CELL_TOP| Angle (b,c), alpha [degree]:                                90.000000
 CELL_TOP| Angle (a,c), beta  [degree]:                                90.000000
 CELL_TOP| Angle (a,b), gamma [degree]:                                90.000000
 CELL_TOP| Numerically orthorhombic:                                         YES
 CELL_TOP| Periodicity                                                      NONE

 GENERATE|  Preliminary Number of Bonds generated:                             0
 GENERATE|  Achieved consistency in connectivity generation.

 CELL| Volume [angstrom^3]:                                         27000.000000
 CELL| Vector a [angstrom]:      30.000     0.000     0.000   |a| =    30.000000
 CELL| Vector b [angstrom]:       0.000    30.000     0.000   |b| =    30.000000
 CELL| Vector c [angstrom]:       0.000     0.000    30.000   |c| =    30.000000
 CELL| Angle (b,c), alpha [degree]:                                    90.000000
 CELL| Angle (a,c), beta  [degree]:                                    90.000000
 CELL| Angle (a,b), gamma [degree]:                                    90.000000
 CELL| Numerically orthorhombic:                                             YES
 CELL| Periodicity                                                          NONE

 CELL_REF| Volume [angstrom^3]:                                     27000.000000
 CELL_REF| Vector a [angstrom    30.000     0.000     0.000   |a| =    30.000000
 CELL_REF| Vector b [angstrom     0.000    30.000     0.000   |b| =    30.000000
 CELL_REF| Vector c [angstrom     0.000     0.000    30.000   |c| =    30.000000
 CELL_REF| Angle (b,c), alpha [degree]:                                90.000000
 CELL_REF| Angle (a,c), beta  [degree]:                                90.000000
 CELL_REF| Angle (a,b), gamma [degree]:                                90.000000
 CELL_REF| Numerically orthorhombic:                                         YES
 CELL_REF| Periodicity                                                      NONE

 *******************************************************************************
 *******************************************************************************
 **                                                                           **
 **     #####                         ##              ##                      **
 **    ##   ##            ##          ##              ##                      **
 **   ##     ##                       ##            ######                    **
 **   ##     ##  ##   ##  ##   #####  ##  ##   ####   ##    #####    #####    **
 **   ##     ##  ##   ##  ##  ##      ## ##   ##      ##   ##   ##  ##   ##   **
 **   ##  ## ##  ##   ##  ##  ##      ####     ###    ##   ######   ######    **
 **    ##  ###   ##   ##  ##  ##      ## ##      ##   ##   ##       ##        **
 **     #######   #####   ##   #####  ##  ##  ####    ##    #####   ##        **
 **           ##                                                    ##        **
 **                                                                           **
 **                                                ... make the atoms dance   **
 **                                                                           **
 **            Copyright (C) by CP2K developers group (2000-2025)             **
 **                      J. Chem. Phys. 152, 194103 (2020)                    **
 **                                                                           **
 *******************************************************************************

 DFT| Spin restricted Kohn-Sham (RKS) calculation                            RKS
 DFT| Multiplicity                                                             1
 DFT| Number of spin states                                                    1
 DFT| Charge                                                                   0
 DFT| Self-interaction correction (SIC)                                       NO
 DFT| Cutoffs: density                                              1.000000E-10
 DFT|          gradient                                             1.000000E-10
 DFT|          tau                                                  1.000000E-10
 DFT|          cutoff_smoothing_range                               0.000000E+00
 DFT| XC density smoothing                                                  NONE
 DFT| XC derivatives                                                          PW

 FUNCTIONAL| PBE:
 FUNCTIONAL| J.P.Perdew, K.Burke, M.Ernzerhof, Phys. Rev. Letter, vol. 77, n 18,
 FUNCTIONAL|  pp. 3865-3868, (1996)sx=0.750sc=1.000{spin unpolarized}           


 QS| Method:                                                                GAPW
 QS| Density plane wave grid type                        NON-SPHERICAL FULLSPACE
 QS| Number of grid levels:                                                    4
 QS| Density cutoff [a.u.]:                                                250.0
 QS| Multi grid cutoff [a.u.]: 1) grid level                               250.0
 QS|                           2) grid level                                83.3
 QS|                           3) grid level                                27.8
 QS|                           4) grid level                                 9.3
 QS| Grid level progression factor:                                          3.0
 QS| Relative density cutoff [a.u.]:                                        50.0
 QS| Interaction thresholds: eps_pgf_orb:                                1.0E-12
 QS|                         eps_filter_matrix:                          0.0E+00
 QS|                         eps_core_charge:                            1.0E-14
 QS|                         eps_rho_gspace:                             1.0E-12
 QS|                         eps_rho_rspace:                             1.0E-12
 QS|                         eps_gvg_rspace:                             1.0E-06
 QS|                         eps_ppl:                                    1.0E-02
 QS|                         eps_ppnl:                                   1.0E-08
 QS| GAPW|      One center basis from orbital basis primitives
 QS| GAPW|                   eps_fit:                                    1.0E-04
 QS| GAPW|                   eps_iso:                                    1.0E-12
 QS| GAPW|                   eps_svd:                                    1.0E-08
 QS| GAPW|                   eps_cpc:                                    1.0E-12
 QS| GAPW|   atom-r-grid: quadrature:                                     GC_LOG
 QS| GAPW|      atom-s-grid:  max l :                                          8
 QS| GAPW|      max_l_rho0 :                                                   2


 ATOMIC KIND INFORMATION

  1. Atomic kind: C                                     Number of atoms:       6

     Orbital Basis Set                                               aug-cc-pVQZ

       Number of orbital shell sets:                                          10
       Number of orbital shells:                                              20
       Number of primitive Cartesian functions:                               29
       Number of Cartesian basis functions:                                  105
       Number of spherical basis functions:                                   80
       Norm type:                                                              2

       Normalised Cartesian orbitals:

                        Set   Shell   Orbital            Exponent    Coefficient

                          1       1    1px               0.032180       0.019428
                          1       1    1py               0.032180       0.019428
                          1       1    1pz               0.032180       0.019428

                          2       1    1s                0.041450       0.065472

                          3       1    1dx2              0.076600       0.018357
                          3       1    1dxy              0.076600       0.031796
                          3       1    1dxz              0.076600       0.031796
                          3       1    1dy2              0.076600       0.018357
                          3       1    1dyz              0.076600       0.031796
                          3       1    1dz2              0.076600       0.018357

                          4       1    1px              34.510000       0.000000
                                                         7.915000       0.000000
                                                         2.368000       0.000000
                                                         0.813200       1.100745
                                                         0.289000       0.000000
                                                         0.100700       0.000000
                          4       1    1py              34.510000       0.000000
                                                         7.915000       0.000000
                                                         2.368000       0.000000
                                                         0.813200       1.100745
                                                         0.289000       0.000000
                                                         0.100700       0.000000
                          4       1    1pz              34.510000       0.000000
                                                         7.915000       0.000000
                                                         2.368000       0.000000
                                                         0.813200       1.100745
                                                         0.289000       0.000000
                                                         0.100700       0.000000

                          4       2    2px              34.510000       0.641198
                                                         7.915000       0.683747
                                                         2.368000       0.596637
                                                         0.813200       0.376620
                                                         0.289000       0.140105
                                                         0.100700       0.020217
                          4       2    2py              34.510000       0.641198
                                                         7.915000       0.683747
                                                         2.368000       0.596637
                                                         0.813200       0.376620
                                                         0.289000       0.140105
                                                         0.100700       0.020217
                          4       2    2pz              34.510000       0.641198
                                                         7.915000       0.683747
                                                         2.368000       0.596637
                                                         0.813200       0.376620
                                                         0.289000       0.140105
                                                         0.100700       0.020217

                          4       3    3px              34.510000       0.000000
                                                         7.915000       0.000000
                                                         2.368000       0.000000
                                                         0.813200       0.000000
                                                         0.289000       0.302039
                                                         0.100700       0.000000
                          4       3    3py              34.510000       0.000000
                                                         7.915000       0.000000
                                                         2.368000       0.000000
                                                         0.813200       0.000000
                                                         0.289000       0.302039
                                                         0.100700       0.000000
                          4       3    3pz              34.510000       0.000000
                                                         7.915000       0.000000
                                                         2.368000       0.000000
                                                         0.813200       0.000000
                                                         0.289000       0.302039
                                                         0.100700       0.000000

                          4       4    4px              34.510000       0.000000
                                                         7.915000       0.000000
                                                         2.368000       0.000000
                                                         0.813200       0.000000
                                                         0.289000       0.000000
                                                         0.100700       0.080859
                          4       4    4py              34.510000       0.000000
                                                         7.915000       0.000000
                                                         2.368000       0.000000
                                                         0.813200       0.000000
                                                         0.289000       0.000000
                                                         0.100700       0.080859
                          4       4    4pz              34.510000       0.000000
                                                         7.915000       0.000000
                                                         2.368000       0.000000
                                                         0.813200       0.000000
                                                         0.289000       0.000000
                                                         0.100700       0.080859

                          5       1    1s            33980.000000       0.162319
                                                      5089.000000       0.302313
                                                      1157.000000       0.522143
                                                       326.600000       0.841034
                                                       106.100000       1.247069
                                                        38.110000       1.607436
                                                        14.750000       1.639463
                                                         6.035000       1.095889
                                                         2.530000       0.310322
                                                         0.735500       0.008997
                                                         0.290500      -0.000870
                                                         0.111100       0.000134

                          5       2    2s            33980.000000       0.000000
                                                      5089.000000       0.000000
                                                      1157.000000       0.000000
                                                       326.600000       0.000000
                                                       106.100000       0.000000
                                                        38.110000       0.000000
                                                        14.750000       0.000000
                                                         6.035000       0.000000
                                                         2.530000       0.000000
                                                         0.735500       0.566040
                                                         0.290500       0.000000
                                                         0.111100       0.000000

                          5       3    3s            33980.000000       0.000000
                                                      5089.000000       0.000000
                                                      1157.000000       0.000000
                                                       326.600000       0.000000
                                                       106.100000       0.000000
                                                        38.110000       0.000000
                                                        14.750000       0.000000
                                                         6.035000       0.000000
                                                         2.530000       0.000000
                                                         0.735500       0.000000
                                                         0.290500       0.282013
                                                         0.111100       0.000000

                          5       4    4s            33980.000000      -0.033891
                                                      5089.000000      -0.064843
                                                      1157.000000      -0.110989
                                                       326.600000      -0.182005
                                                       106.100000      -0.271236
                                                        38.110000      -0.373428
                                                        14.750000      -0.413970
                                                         6.035000      -0.388287
                                                         2.530000      -0.168734
                                                         0.735500       0.154985
                                                         0.290500       0.165404
                                                         0.111100       0.039147

                          5       5    5s            33980.000000       0.000000
                                                      5089.000000       0.000000
                                                      1157.000000       0.000000
                                                       326.600000       0.000000
                                                       106.100000       0.000000
                                                        38.110000       0.000000
                                                        14.750000       0.000000
                                                         6.035000       0.000000
                                                         2.530000       0.000000
                                                         0.735500       0.000000
                                                         0.290500       0.000000
                                                         0.111100       0.137150

                          6       1    1fx3              0.187000       0.033853
                          6       1    1fx2y             0.187000       0.075698
                          6       1    1fx2z             0.187000       0.075698
                          6       1    1fxy2             0.187000       0.075698
                          6       1    1fxyz             0.187000       0.131112
                          6       1    1fxz2             0.187000       0.075698
                          6       1    1fy3              0.187000       0.033853
                          6       1    1fy2z             0.187000       0.075698
                          6       1    1fyz2             0.187000       0.075698
                          6       1    1fz3              0.187000       0.033853

                          7       1    1dx2              1.848000       4.821009
                                                         0.649000       0.000000
                                                         0.228000       0.000000
                          7       1    1dxy              1.848000       8.350232
                                                         0.649000       0.000000
                                                         0.228000       0.000000
                          7       1    1dxz              1.848000       8.350232
                                                         0.649000       0.000000
                                                         0.228000       0.000000
                          7       1    1dy2              1.848000       4.821009
                                                         0.649000       0.000000
                                                         0.228000       0.000000
                          7       1    1dyz              1.848000       8.350232
                                                         0.649000       0.000000
                                                         0.228000       0.000000
                          7       1    1dz2              1.848000       4.821009
                                                         0.649000       0.000000
                                                         0.228000       0.000000

                          7       2    2dx2              1.848000       0.000000
                                                         0.649000       0.772392
                                                         0.228000       0.000000
                          7       2    2dxy              1.848000       0.000000
                                                         0.649000       1.337822
                                                         0.228000       0.000000
                          7       2    2dxz              1.848000       0.000000
                                                         0.649000       1.337822
                                                         0.228000       0.000000
                          7       2    2dy2              1.848000       0.000000
                                                         0.649000       0.772392
                                                         0.228000       0.000000
                          7       2    2dyz              1.848000       0.000000
                                                         0.649000       1.337822
                                                         0.228000       0.000000
                          7       2    2dz2              1.848000       0.000000
                                                         0.649000       0.772392
                                                         0.228000       0.000000

                          7       3    3dx2              1.848000       0.000000
                                                         0.649000       0.000000
                                                         0.228000       0.123821
                          7       3    3dxy              1.848000       0.000000
                                                         0.649000       0.000000
                                                         0.228000       0.214465
                          7       3    3dxz              1.848000       0.000000
                                                         0.649000       0.000000
                                                         0.228000       0.214465
                          7       3    3dy2              1.848000       0.000000
                                                         0.649000       0.000000
                                                         0.228000       0.123821
                          7       3    3dyz              1.848000       0.000000
                                                         0.649000       0.000000
                                                         0.228000       0.214465
                          7       3    3dz2              1.848000       0.000000
                                                         0.649000       0.000000
                                                         0.228000       0.123821

                          8       1    1gx4              0.424000       0.105121
                          8       1    1gx3y             0.424000       0.278125
                          8       1    1gx3z             0.424000       0.278125
                          8       1    1gx2y2            0.424000       0.359058
                          8       1    1gx2yz            0.424000       0.621907
                          8       1    1gx2z2            0.424000       0.359058
                          8       1    1gxy3             0.424000       0.278125
                          8       1    1gxy2z            0.424000       0.621907
                          8       1    1gxyz2            0.424000       0.621907
                          8       1    1gxz3             0.424000       0.278125
                          8       1    1gy4              0.424000       0.105121
                          8       1    1gy3z             0.424000       0.278125
                          8       1    1gy2z2            0.424000       0.359058
                          8       1    1gyz3             0.424000       0.278125
                          8       1    1gz4              0.424000       0.105121

                          9       1    1fx3              1.419000       3.235302
                                                         0.485000       0.000000
                          9       1    1fx2y             1.419000       7.234355
                                                         0.485000       0.000000
                          9       1    1fx2z             1.419000       7.234355
                                                         0.485000       0.000000
                          9       1    1fxy2             1.419000       7.234355
                                                         0.485000       0.000000
                          9       1    1fxyz             1.419000      12.530271
                                                         0.485000       0.000000
                          9       1    1fxz2             1.419000       7.234355
                                                         0.485000       0.000000
                          9       1    1fy3              1.419000       3.235302
                                                         0.485000       0.000000
                          9       1    1fy2z             1.419000       7.234355
                                                         0.485000       0.000000
                          9       1    1fyz2             1.419000       7.234355
                                                         0.485000       0.000000
                          9       1    1fz3              1.419000       3.235302
                                                         0.485000       0.000000

                          9       2    2fx3              1.419000       0.000000
                                                         0.485000       0.288984
                          9       2    2fx2y             1.419000       0.000000
                                                         0.485000       0.646187
                          9       2    2fx2z             1.419000       0.000000
                                                         0.485000       0.646187
                          9       2    2fxy2             1.419000       0.000000
                                                         0.485000       0.646187
                          9       2    2fxyz             1.419000       0.000000
                                                         0.485000       1.119229
                          9       2    2fxz2             1.419000       0.000000
                                                         0.485000       0.646187
                          9       2    2fy3              1.419000       0.000000
                                                         0.485000       0.288984
                          9       2    2fy2z             1.419000       0.000000
                                                         0.485000       0.646187
                          9       2    2fyz2             1.419000       0.000000
                                                         0.485000       0.646187
                          9       2    2fz3              1.419000       0.000000
                                                         0.485000       0.288984

                         10       1    1gx4              1.011000       1.146835
                         10       1    1gx3y             1.011000       3.034241
                         10       1    1gx3z             1.011000       3.034241
                         10       1    1gx2y2            1.011000       3.917189
                         10       1    1gx2yz            1.011000       6.784770
                         10       1    1gx2z2            1.011000       3.917189
                         10       1    1gxy3             1.011000       3.034241
                         10       1    1gxy2z            1.011000       6.784770
                         10       1    1gxyz2            1.011000       6.784770
                         10       1    1gxz3             1.011000       3.034241
                         10       1    1gy4              1.011000       1.146835
                         10       1    1gy3z             1.011000       3.034241
                         10       1    1gy2z2            1.011000       3.917189
                         10       1    1gyz3             1.011000       3.034241
                         10       1    1gz4              1.011000       1.146835

     RI Auxiliary Basis Set                                    aug-cc-pVQZ-OPTRI

       Number of orbital shell sets:                                          19
       Number of orbital shells:                                              19
       Number of primitive Cartesian functions:                               19
       Number of Cartesian basis functions:                                  124
       Number of spherical basis functions:                                   89
       Norm type:                                                              2

       Normalised Cartesian orbitals:

                        Set   Shell   Orbital            Exponent    Coefficient

                          1       1    1px               0.047059       0.031242
                          1       1    1py               0.047059       0.031242
                          1       1    1pz               0.047059       0.031242

                          2       1    1s                0.062311       0.088886

                          3       1    1px               0.069085       0.050486
                          3       1    1py               0.069085       0.050486
                          3       1    1pz               0.069085       0.050486

                          4       1    1dx2              0.114693       0.037205
                          4       1    1dxy              0.114693       0.064441
                          4       1    1dxz              0.114693       0.064441
                          4       1    1dy2              0.114693       0.037205
                          4       1    1dyz              0.114693       0.064441
                          4       1    1dz2              0.114693       0.037205

                          5       1    1px               0.151311       0.134517
                          5       1    1py               0.151311       0.134517
                          5       1    1pz               0.151311       0.134517

                          6       1    1s                0.165868       0.185239

                          7       1    1fx3              0.314425       0.108985
                          7       1    1fx2y             0.314425       0.243699
                          7       1    1fx2z             0.314425       0.243699
                          7       1    1fxy2             0.314425       0.243699
                          7       1    1fxyz             0.314425       0.422098
                          7       1    1fxz2             0.314425       0.243699
                          7       1    1fy3              0.314425       0.108985
                          7       1    1fy2z             0.314425       0.243699
                          7       1    1fyz2             0.314425       0.243699
                          7       1    1fz3              0.314425       0.108985

                          8       1    1dx2              0.339088       0.248003
                          8       1    1dxy              0.339088       0.429553
                          8       1    1dxz              0.339088       0.429553
                          8       1    1dy2              0.339088       0.248003
                          8       1    1dyz              0.339088       0.429553
                          8       1    1dz2              0.339088       0.248003

                          9       1    1s                0.432835       0.380322

                         10       1    1gx4              0.675927       0.379018
                         10       1    1gx3y             0.675927       1.002787
                         10       1    1gx3z             0.675927       1.002787
                         10       1    1gx2y2            0.675927       1.294593
                         10       1    1gx2yz            0.675927       2.242301
                         10       1    1gx2z2            0.675927       1.294593
                         10       1    1gxy3             0.675927       1.002787
                         10       1    1gxy2z            0.675927       2.242301
                         10       1    1gxyz2            0.675927       2.242301
                         10       1    1gxz3             0.675927       1.002787
                         10       1    1gy4              0.675927       0.379018
                         10       1    1gy3z             0.675927       1.002787
                         10       1    1gy2z2            0.675927       1.294593
                         10       1    1gyz3             0.675927       1.002787
                         10       1    1gz4              0.675927       0.379018

                         11       1    1fx3              0.726248       0.716796
                         11       1    1fx2y             0.726248       1.602805
                         11       1    1fx2z             0.726248       1.602805
                         11       1    1fxy2             0.726248       1.602805
                         11       1    1fxyz             0.726248       2.776139
                         11       1    1fxz2             0.726248       1.602805
                         11       1    1fy3              0.726248       0.716796
                         11       1    1fy2z             0.726248       1.602805
                         11       1    1fyz2             0.726248       1.602805
                         11       1    1fz3              0.726248       0.716796

                         12       1    1hx5              1.155657       1.187239
                         12       1    1hx4y             1.155657       3.561718
                         12       1    1hx4z             1.155657       3.561718
                         12       1    1hx3y2            1.155657       5.440614
                         12       1    1hx3yz            1.155657       9.423420
                         12       1    1hx3z2            1.155657       5.440614
                         12       1    1hx2y3            1.155657       5.440614
                         12       1    1hx2y2z           1.155657      12.165583
                         12       1    1hx2yz2           1.155657      12.165583
                         12       1    1hx2z3            1.155657       5.440614
                         12       1    1hxy4             1.155657       3.561718
                         12       1    1hxy3z            1.155657       9.423420
                         12       1    1hxy2z2           1.155657      12.165583
                         12       1    1hxyz3            1.155657       9.423420
                         12       1    1hxz4             1.155657       3.561718
                         12       1    1hy5              1.155657       1.187239
                         12       1    1hy4z             1.155657       3.561718
                         12       1    1hy3z2            1.155657       5.440614
                         12       1    1hy2z3            1.155657       5.440614
                         12       1    1hyz4             1.155657       3.561718
                         12       1    1hz5              1.155657       1.187239

                         13       1    1px               1.221757       1.830927
                         13       1    1py               1.221757       1.830927
                         13       1    1pz               1.221757       1.830927

                         14       1    1dx2              1.234971       2.381271
                         14       1    1dxy              1.234971       4.124482
                         14       1    1dxz              1.234971       4.124482
                         14       1    1dy2              1.234971       2.381271
                         14       1    1dyz              1.234971       4.124482
                         14       1    1dz2              1.234971       2.381271

                         15       1    1s                1.924328       1.164446

                         16       1    1gx4              2.190809       9.618290
                         16       1    1gx3y             2.190809      25.447602
                         16       1    1gx3z             2.190809      25.447602
                         16       1    1gx2y2            2.190809      32.852713
                         16       1    1gx2yz            2.190809      56.902568
                         16       1    1gx2z2            2.190809      32.852713
                         16       1    1gxy3             2.190809      25.447602
                         16       1    1gxy2z            2.190809      56.902568
                         16       1    1gxyz2            2.190809      56.902568
                         16       1    1gxz3             2.190809      25.447602
                         16       1    1gy4              2.190809       9.618290
                         16       1    1gy3z             2.190809      25.447602
                         16       1    1gy2z2            2.190809      32.852713
                         16       1    1gyz3             2.190809      25.447602
                         16       1    1gz4              2.190809       9.618290

                         17       1    1dx2              3.110401      11.990523
                         17       1    1dxy              3.110401      20.768195
                         17       1    1dxz              3.110401      20.768195
                         17       1    1dy2              3.110401      11.990523
                         17       1    1dyz              3.110401      20.768195
                         17       1    1dz2              3.110401      11.990523

                         18       1    1px               3.134944       5.946033
                         18       1    1py               3.134944       5.946033
                         18       1    1pz               3.134944       5.946033

                         19       1    1fx3              3.452225      23.915387
                         19       1    1fx2y             3.452225      53.476431
                         19       1    1fx2z             3.452225      53.476431
                         19       1    1fxy2             3.452225      53.476431
                         19       1    1fxyz             3.452225      92.623895
                         19       1    1fxz2             3.452225      53.476431
                         19       1    1fy3              3.452225      23.915387
                         19       1    1fy2z             3.452225      53.476431
                         19       1    1fyz2             3.452225      53.476431
                         19       1    1fz3              3.452225      23.915387

       Atomic covalent radius [Angstrom]:                                  0.770

       Atomic van der Waals radius [Angstrom]:                             1.700

     The atoms of this atomic kind are PAW atoms (GAPW):
       Hard Gaussian function radius:                                      1.512
       Rho0 radius:                                                        1.512
       Maximum GTO radius used for PAW projector construction:            24.566

     GAPW Soft Basis Set                                        aug-cc-pVQZ_soft

       Number of orbital shell sets:                                          10
       Number of orbital shells:                                              20
       Number of primitive Cartesian functions:                               19
       Number of Cartesian basis functions:                                  105
       Number of spherical basis functions:                                   80
       Norm type:                                                              2

       Normalised Cartesian orbitals:

                        Set   Shell   Orbital            Exponent    Coefficient

                          1       1    1px               0.032180       0.019428
                          1       1    1py               0.032180       0.019428
                          1       1    1pz               0.032180       0.019428

                          2       1    1s                0.041450       0.065472

                          3       1    1dx2              0.076600       0.018357
                          3       1    1dxy              0.076600       0.031796
                          3       1    1dxz              0.076600       0.031796
                          3       1    1dy2              0.076600       0.018357
                          3       1    1dyz              0.076600       0.031796
                          3       1    1dz2              0.076600       0.018357

                          4       1    1px               2.368000       0.000000
                                                         0.813200       1.100745
                                                         0.289000       0.000000
                                                         0.100700       0.000000
                          4       1    1py               2.368000       0.000000
                                                         0.813200       1.100745
                                                         0.289000       0.000000
                                                         0.100700       0.000000
                          4       1    1pz               2.368000       0.000000
                                                         0.813200       1.100745
                                                         0.289000       0.000000
                                                         0.100700       0.000000

                          4       2    2px               2.368000       0.596637
                                                         0.813200       0.376620
                                                         0.289000       0.140105
                                                         0.100700       0.020217
                          4       2    2py               2.368000       0.596637
                                                         0.813200       0.376620
                                                         0.289000       0.140105
                                                         0.100700       0.020217
                          4       2    2pz               2.368000       0.596637
                                                         0.813200       0.376620
                                                         0.289000       0.140105
                                                         0.100700       0.020217

                          4       3    3px               2.368000       0.000000
                                                         0.813200       0.000000
                                                         0.289000       0.302039
                                                         0.100700       0.000000
                          4       3    3py               2.368000       0.000000
                                                         0.813200       0.000000
                                                         0.289000       0.302039
                                                         0.100700       0.000000
                          4       3    3pz               2.368000       0.000000
                                                         0.813200       0.000000
                                                         0.289000       0.302039
                                                         0.100700       0.000000

                          4       4    4px               2.368000       0.000000
                                                         0.813200       0.000000
                                                         0.289000       0.000000
                                                         0.100700       0.080859
                          4       4    4py               2.368000       0.000000
                                                         0.813200       0.000000
                                                         0.289000       0.000000
                                                         0.100700       0.080859
                          4       4    4pz               2.368000       0.000000
                                                         0.813200       0.000000
                                                         0.289000       0.000000
                                                         0.100700       0.080859

                          5       1    1s                2.530000       0.310322
                                                         0.735500       0.008997
                                                         0.290500      -0.000870
                                                         0.111100       0.000134

                          5       2    2s                2.530000       0.000000
                                                         0.735500       0.566040
                                                         0.290500       0.000000
                                                         0.111100       0.000000

                          5       3    3s                2.530000       0.000000
                                                         0.735500       0.000000
                                                         0.290500       0.282013
                                                         0.111100       0.000000

                          5       4    4s                2.530000      -0.168734
                                                         0.735500       0.154985
                                                         0.290500       0.165404
                                                         0.111100       0.039147

                          5       5    5s                2.530000       0.000000
                                                         0.735500       0.000000
                                                         0.290500       0.000000
                                                         0.111100       0.137150

                          6       1    1fx3              0.187000       0.033853
                          6       1    1fx2y             0.187000       0.075698
                          6       1    1fx2z             0.187000       0.075698
                          6       1    1fxy2             0.187000       0.075698
                          6       1    1fxyz             0.187000       0.131112
                          6       1    1fxz2             0.187000       0.075698
                          6       1    1fy3              0.187000       0.033853
                          6       1    1fy2z             0.187000       0.075698
                          6       1    1fyz2             0.187000       0.075698
                          6       1    1fz3              0.187000       0.033853

                          7       1    1dx2              1.848000       4.821009
                                                         0.649000       0.000000
                                                         0.228000       0.000000
                          7       1    1dxy              1.848000       8.350232
                                                         0.649000       0.000000
                                                         0.228000       0.000000
                          7       1    1dxz              1.848000       8.350232
                                                         0.649000       0.000000
                                                         0.228000       0.000000
                          7       1    1dy2              1.848000       4.821009
                                                         0.649000       0.000000
                                                         0.228000       0.000000
                          7       1    1dyz              1.848000       8.350232
                                                         0.649000       0.000000
                                                         0.228000       0.000000
                          7       1    1dz2              1.848000       4.821009
                                                         0.649000       0.000000
                                                         0.228000       0.000000

                          7       2    2dx2              1.848000       0.000000
                                                         0.649000       0.772392
                                                         0.228000       0.000000
                          7       2    2dxy              1.848000       0.000000
                                                         0.649000       1.337822
                                                         0.228000       0.000000
                          7       2    2dxz              1.848000       0.000000
                                                         0.649000       1.337822
                                                         0.228000       0.000000
                          7       2    2dy2              1.848000       0.000000
                                                         0.649000       0.772392
                                                         0.228000       0.000000
                          7       2    2dyz              1.848000       0.000000
                                                         0.649000       1.337822
                                                         0.228000       0.000000
                          7       2    2dz2              1.848000       0.000000
                                                         0.649000       0.772392
                                                         0.228000       0.000000

                          7       3    3dx2              1.848000       0.000000
                                                         0.649000       0.000000
                                                         0.228000       0.123821
                          7       3    3dxy              1.848000       0.000000
                                                         0.649000       0.000000
                                                         0.228000       0.214465
                          7       3    3dxz              1.848000       0.000000
                                                         0.649000       0.000000
                                                         0.228000       0.214465
                          7       3    3dy2              1.848000       0.000000
                                                         0.649000       0.000000
                                                         0.228000       0.123821
                          7       3    3dyz              1.848000       0.000000
                                                         0.649000       0.000000
                                                         0.228000       0.214465
                          7       3    3dz2              1.848000       0.000000
                                                         0.649000       0.000000
                                                         0.228000       0.123821

                          8       1    1gx4              0.424000       0.105121
                          8       1    1gx3y             0.424000       0.278125
                          8       1    1gx3z             0.424000       0.278125
                          8       1    1gx2y2            0.424000       0.359058
                          8       1    1gx2yz            0.424000       0.621907
                          8       1    1gx2z2            0.424000       0.359058
                          8       1    1gxy3             0.424000       0.278125
                          8       1    1gxy2z            0.424000       0.621907
                          8       1    1gxyz2            0.424000       0.621907
                          8       1    1gxz3             0.424000       0.278125
                          8       1    1gy4              0.424000       0.105121
                          8       1    1gy3z             0.424000       0.278125
                          8       1    1gy2z2            0.424000       0.359058
                          8       1    1gyz3             0.424000       0.278125
                          8       1    1gz4              0.424000       0.105121

                          9       1    1fx3              1.419000       3.235302
                                                         0.485000       0.000000
                          9       1    1fx2y             1.419000       7.234355
                                                         0.485000       0.000000
                          9       1    1fx2z             1.419000       7.234355
                                                         0.485000       0.000000
                          9       1    1fxy2             1.419000       7.234355
                                                         0.485000       0.000000
                          9       1    1fxyz             1.419000      12.530271
                                                         0.485000       0.000000
                          9       1    1fxz2             1.419000       7.234355
                                                         0.485000       0.000000
                          9       1    1fy3              1.419000       3.235302
                                                         0.485000       0.000000
                          9       1    1fy2z             1.419000       7.234355
                                                         0.485000       0.000000
                          9       1    1fyz2             1.419000       7.234355
                                                         0.485000       0.000000
                          9       1    1fz3              1.419000       3.235302
                                                         0.485000       0.000000

                          9       2    2fx3              1.419000       0.000000
                                                         0.485000       0.288984
                          9       2    2fx2y             1.419000       0.000000
                                                         0.485000       0.646187
                          9       2    2fx2z             1.419000       0.000000
                                                         0.485000       0.646187
                          9       2    2fxy2             1.419000       0.000000
                                                         0.485000       0.646187
                          9       2    2fxyz             1.419000       0.000000
                                                         0.485000       1.119229
                          9       2    2fxz2             1.419000       0.000000
                                                         0.485000       0.646187
                          9       2    2fy3              1.419000       0.000000
                                                         0.485000       0.288984
                          9       2    2fy2z             1.419000       0.000000
                                                         0.485000       0.646187
                          9       2    2fyz2             1.419000       0.000000
                                                         0.485000       0.646187
                          9       2    2fz3              1.419000       0.000000
                                                         0.485000       0.288984

                         10       1    1gx4              1.011000       1.146835
                         10       1    1gx3y             1.011000       3.034241
                         10       1    1gx3z             1.011000       3.034241
                         10       1    1gx2y2            1.011000       3.917189
                         10       1    1gx2yz            1.011000       6.784770
                         10       1    1gx2z2            1.011000       3.917189
                         10       1    1gxy3             1.011000       3.034241
                         10       1    1gxy2z            1.011000       6.784770
                         10       1    1gxyz2            1.011000       6.784770
                         10       1    1gxz3             1.011000       3.034241
                         10       1    1gy4              1.011000       1.146835
                         10       1    1gy3z             1.011000       3.034241
                         10       1    1gy2z2            1.011000       3.917189
                         10       1    1gyz3             1.011000       3.034241
                         10       1    1gz4              1.011000       1.146835

     AE Potential information for                                            ALL

       Description:                                       All-electron potential
                                          Krack, Parrinello, PCCP 2, 2105 (2000)

       Gaussian exponent of the core charge distribution:               4.109048
       Electronic configuration (s p d ...):                           4   2   0

  2. Atomic kind: H                                     Number of atoms:      10

     Orbital Basis Set                                               aug-cc-pVQZ

       Number of orbital shell sets:                                           8
       Number of orbital shells:                                              14
       Number of primitive Cartesian functions:                               16
       Number of Cartesian basis functions:                                   55
       Number of spherical basis functions:                                   46
       Norm type:                                                              2

       Normalised Cartesian orbitals:

                        Set   Shell   Orbital            Exponent    Coefficient

                          1       1    1s                0.023630       0.042954

                          2       1    1px               0.084800       0.065228
                          2       1    1py               0.084800       0.065228
                          2       1    1pz               0.084800       0.065228

                          3       1    1s               82.640000       0.000000
                                                        12.410000       0.000000
                                                         2.824000       0.000000
                                                         0.797700       0.601575
                                                         0.258100       0.000000
                                                         0.089890       0.000000

                          3       2    2s               82.640000       0.000000
                                                        12.410000       0.000000
                                                         2.824000       0.000000
                                                         0.797700       0.000000
                                                         0.258100       0.258078
                                                         0.089890       0.000000

                          3       3    3s               82.640000       0.039186
                                                        12.410000       0.072302
                                                         2.824000       0.117344
                                                         0.797700       0.154530
                                                         0.258100       0.128360
                                                         0.089890       0.034648

                          3       4    4s               82.640000       0.000000
                                                        12.410000       0.000000
                                                         2.824000       0.000000
                                                         0.797700       0.000000
                                                         0.258100       0.000000
                                                         0.089890       0.117002

                          4       1    1dx2              0.190000       0.089997
                          4       1    1dxy              0.190000       0.155879
                          4       1    1dxz              0.190000       0.155879
                          4       1    1dy2              0.190000       0.089997
                          4       1    1dyz              0.190000       0.155879
                          4       1    1dz2              0.190000       0.089997

                          5       1    1px               2.292000       4.019836
                                                         0.838000       0.000000
                                                         0.292000       0.000000
                          5       1    1py               2.292000       4.019836
                                                         0.838000       0.000000
                                                         0.292000       0.000000
                          5       1    1pz               2.292000       4.019836
                                                         0.838000       0.000000
                                                         0.292000       0.000000

                          5       2    2px               2.292000       0.000000
                                                         0.838000       1.142865
                                                         0.292000       0.000000
                          5       2    2py               2.292000       0.000000
                                                         0.838000       1.142865
                                                         0.292000       0.000000
                          5       2    2pz               2.292000       0.000000
                                                         0.838000       1.142865
                                                         0.292000       0.000000

                          5       3    3px               2.292000       0.000000
                                                         0.838000       0.000000
                                                         0.292000       0.305963
                          5       3    3py               2.292000       0.000000
                                                         0.838000       0.000000
                                                         0.292000       0.305963
                          5       3    3pz               2.292000       0.000000
                                                         0.838000       0.000000
                                                         0.292000       0.305963

                          6       1    1fx3              0.360000       0.147787
                          6       1    1fx2y             0.360000       0.330461
                          6       1    1fx2z             0.360000       0.330461
                          6       1    1fxy2             0.360000       0.330461
                          6       1    1fxyz             0.360000       0.572375
                          6       1    1fxz2             0.360000       0.330461
                          6       1    1fy3              0.360000       0.147787
                          6       1    1fy2z             0.360000       0.330461
                          6       1    1fyz2             0.360000       0.330461
                          6       1    1fz3              0.360000       0.147787

                          7       1    1dx2              2.062000       5.840024
                                                         0.662000       0.000000
                          7       1    1dxy              2.062000      10.115218
                                                         0.662000       0.000000
                          7       1    1dxz              2.062000      10.115218
                                                         0.662000       0.000000
                          7       1    1dy2              2.062000       5.840024
                                                         0.662000       0.000000
                          7       1    1dyz              2.062000      10.115218
                                                         0.662000       0.000000
                          7       1    1dz2              2.062000       5.840024
                                                         0.662000       0.000000

                          7       2    2dx2              2.062000       0.000000
                                                         0.662000       0.799670
                          7       2    2dxy              2.062000       0.000000
                                                         0.662000       1.385069
                          7       2    2dxz              2.062000       0.000000
                                                         0.662000       1.385069
                          7       2    2dy2              2.062000       0.000000
                                                         0.662000       0.799670
                          7       2    2dyz              2.062000       0.000000
                                                         0.662000       1.385069
                          7       2    2dz2              2.062000       0.000000
                                                         0.662000       0.799670

                          8       1    1fx3              1.397000       3.123535
                          8       1    1fx2y             1.397000       6.984436
                          8       1    1fx2z             1.397000       6.984436
                          8       1    1fxy2             1.397000       6.984436
                          8       1    1fxyz             1.397000      12.097399
                          8       1    1fxz2             1.397000       6.984436
                          8       1    1fy3              1.397000       3.123535
                          8       1    1fy2z             1.397000       6.984436
                          8       1    1fyz2             1.397000       6.984436
                          8       1    1fz3              1.397000       3.123535

     RI Auxiliary Basis Set                                    aug-cc-pVQZ-OPTRI

       Number of orbital shell sets:                                          15
       Number of orbital shells:                                              15
       Number of primitive Cartesian functions:                               15
       Number of Cartesian basis functions:                                   84
       Number of spherical basis functions:                                   63
       Norm type:                                                              2

       Normalised Cartesian orbitals:

                        Set   Shell   Orbital            Exponent    Coefficient

                          1       1    1s                0.172202       0.190519

                          2       1    1dx2              0.411937       0.348629
                          2       1    1dxy              0.411937       0.603843
                          2       1    1dxz              0.411937       0.603843
                          2       1    1dy2              0.411937       0.348629
                          2       1    1dyz              0.411937       0.603843
                          2       1    1dz2              0.411937       0.348629

                          3       1    1s                0.462666       0.399817

                          4       1    1px               0.544212       0.666270
                          4       1    1py               0.544212       0.666270
                          4       1    1pz               0.544212       0.666270

                          5       1    1fx3              0.798039       0.886153
                          5       1    1fx2y             0.798039       1.981498
                          5       1    1fx2z             0.798039       1.981498
                          5       1    1fxy2             0.798039       1.981498
                          5       1    1fxyz             0.798039       3.432056
                          5       1    1fxz2             0.798039       1.981498
                          5       1    1fy3              0.798039       0.886153
                          5       1    1fy2z             0.798039       1.981498
                          5       1    1fyz2             0.798039       1.981498
                          5       1    1fz3              0.798039       0.886153

                          6       1    1gx4              1.030651       1.209184
                          6       1    1gx3y             1.030651       3.199200
                          6       1    1gx3z             1.030651       3.199200
                          6       1    1gx2y2            1.030651       4.130150
[...]

 R. L. Martin.
 J. Chem. Phys. 118, 4775-4777 (2003).
 Natural transition orbitals.
 https://doi.org/10.1063/1.1558471

 M. Krack, M. Parrinello.
 Phys. Chem. Chem. Phys. 2, 2105-2112 (2000).
 All-electron ab-initio molecular dynamics.
 https://doi.org/10.1039/b001167n

 G. Lippert, J. Hutter, M. Parrinello.
 Theor. Chem. Acc. 103, 124-140 (1999).
 The Gaussian and augmented-plane-wave density functional method for ab initio 
 molecular dynamics simulations.
 https://doi.org/10.1007/s002140050523

 J. P. Perdew, K. Burke, M. Ernzerhof.
 Phys. Rev. Lett. 77, 3865-3868 (1996).
 Generalized gradient approximation made simple.
 https://doi.org/10.1103/PhysRevLett.77.3865


 -------------------------------------------------------------------------------
 -                                                                             -
 -                                T I M I N G                                  -
 -                                                                             -
 -------------------------------------------------------------------------------
 SUBROUTINE                       CALLS  ASD         SELF TIME        TOTAL TIME
                                MAXIMUM       AVERAGE  MAXIMUM  AVERAGE  MAXIMUM
 CP2K                                 1  1.0    0.186    0.220 1085.930 1085.930
 qs_energies                          1  2.0    0.000    0.001 1083.799 1083.800
 qs_energies_properties               1  3.0    0.000    0.000  729.541  729.542
 tddfpt                               1  4.0    0.000    0.000  729.541  729.542
 tddfpt_energies                      1  5.0    0.000    0.001  729.265  729.265
 tddfpt_davidson_solver               1  6.0    0.003    0.005  723.039  723.039
 tddfpt_compute_Aop_evects            9  7.0    0.000    0.000  719.910  719.911
 integrate_four_center              439  9.8   12.010   18.797  649.144  649.419
 integrate_four_center_main         439 10.8    4.881    8.086  564.479  575.941
 integrate_four_center_bin        62828 11.8  559.598  572.311  559.598  572.311
 tddfpt_apply_hfx                     9  8.0    0.004    0.005  446.396  446.397
 tddft_hfx_matrix                   360  9.0    0.012    0.013  442.375  442.614
 scf_env_do_scf                       1  3.0    0.000    0.000  344.052  344.065
 scf_env_do_scf_inner_loop           79  4.0    0.002    0.006  344.052  344.065
 qs_ks_update_qs_env                 79  5.0    0.001    0.001  298.342  298.453
 rebuild_ks_matrix                   79  6.0    0.000    0.000  298.330  298.441
 qs_ks_build_kohn_sham_matrix        79  7.0    0.012    0.014  298.329  298.441
 fhxc_kernel                          9  8.0    0.008    0.009  272.161  272.163
 hfx_ks_matrix                       79  8.0    0.003    0.004  206.796  206.839
 pw_poisson_solve                   259  9.4    2.806    3.591  128.693  129.862
 tddfpt_apply_coulomb               180  9.0    0.003    0.004  122.357  123.579
 fft_wrap_pw1pw2                   5273 11.0    0.086    0.122  102.182  103.929
 fft_wrap_pw1pw2_250               3713 12.1    3.322    3.747   98.894  100.647
 fft3d_ps                          5273 13.0   18.241   21.363   92.602   94.448
 mp_alltoall_z22v                  5273 15.0   71.522   74.206   71.522   74.206
 ps_wavelet_solve                   259 10.4   41.990   51.320   70.717   71.828
 qs_rho_update_rho_low              261  7.8    0.003    0.004   67.802   67.820
 calculate_rho_elec                 261  8.8    0.955    1.207   60.491   60.509
 prepare_gapw_den                   260  8.7    0.007    0.008   54.984   55.027
 x_to_yz                           2414 13.7    1.344    1.801   52.674   54.255
 integrate_v_rspace                 259  9.0    0.007    0.008   53.034   53.304
 mp_alltoall_d54                    259 11.4   12.962   47.189   12.962   47.189
 density_rs2pw                      261  9.8    0.013    0.016   38.134   44.606
 gaVxcgb_GC                        1036  9.7    1.260   42.072    1.260   42.072
 mp_alltoall_d11v                 16056 11.6   30.983   40.539   30.983   40.539
 calculate_rho_atom                1040  9.7    8.547   38.784    8.547   38.785
 transfer_rs2pw                    1305 10.7    0.024    0.043   31.997   38.442
 calculate_xc_2nd_deriv_atom        180  9.0    0.230    5.882    1.148   35.762
 mp_sync                           2333 11.5   25.378   35.379   25.378   35.379
 mp_sum_dv                        71192  8.7   32.489   33.816   32.489   33.816
 grid_collocate_task_list           261  9.8   20.114   32.840   20.114   32.840
 mp_waitany                       60358 12.8   24.583   32.061   24.583   32.061
 calc_screening_functions             1 10.0   21.057   22.065   26.965   27.950
 rs_gather_matrices                 259 10.0    0.042    0.079   22.814   27.601
 xc_pw_derive                      1557 11.0    0.011    0.012   27.214   27.430
 transfer_rs2pw_250                 522 11.7    2.399    2.749   18.668   26.790
 grid_integrate_task_list           259 10.0    4.727   26.610    4.727   26.610
 potential_pw2rs                    259 10.0    0.081    0.090   25.485   25.841
 mp_sum_d                         29677  7.1   22.875   24.008   22.875   24.008
 transfer_pw2rs                    1296 10.9    0.017    0.022   22.950   23.581
 tddfpt_apply_xc_analytic           180  9.0    0.068    0.078   22.619   22.785
 yz_to_x                           2339 14.4    1.010    1.120   21.157   22.183
 mp_waitall_1                    359590 13.3   16.260   20.271   16.260   20.271
 mp_alltoall_d45                    260 11.4   15.360   19.298   15.360   19.298
 xc_pw_divergence                   259 10.7    0.005    0.006   17.970   18.162
 cp_fm_syevd                        131  7.2    0.001    0.001   18.068   18.122
 integrate_vhg0_rspace              259  9.4    3.386    3.710   17.864   18.001
 cp_fm_redistribute_end             131  8.2    9.007   17.893    9.027   17.905
 cp_fm_syevd_base                   131  8.2    8.844   17.723    8.844   17.723
 qs_scf_new_mos                      79  5.0    0.001    0.001   16.231   16.302
 mp_sum_dm                        15732 10.0   15.498   15.994   15.498   15.994
 sum_up_and_integrate                79  8.0    0.001    0.001   15.573   15.614
 eigensolver_symm                    79  6.0    0.004    0.005   15.201   15.217
 calculate_vxc_atom                  79  8.0    0.091    1.331   14.281   14.282
 xc_calc_2nd_deriv_analytical      1620 10.2    0.529    0.641   13.035   13.172
 qs_vxc_create                       79  8.0    0.001    0.001   11.392   11.393
 xc_vxc_pw_create                    79  9.0    0.313    0.398   11.391   11.392
 transfer_pw2rs_250                 519 11.7    3.044    3.365    9.948   10.480
 powell_optimize                3931382 11.0    9.739   10.354    9.739   10.354
 put_rho0_on_grid                   260  9.7    1.006    1.308    9.976   10.019
 qs_energies_init_hamiltonians        1  3.0    0.000    0.000    9.570    9.570
 build_core_hamiltonian_matrix        1  4.0    0.000    0.000    9.560    9.561
 overlap_condnum                      1  5.0    0.000    0.000    9.536    9.548
 arnoldi_conjugate_gradient           9  6.0    0.125    0.154    9.272    9.272
 transfer_pw2rs_30                  259 12.0    5.068    6.108    9.040    9.269
 transfer_rs2pw_90                  261 11.8    0.447    0.523    3.904    9.142
 gspace_mixing                       78  5.0    0.284    0.360    8.969    8.970
 cp_dbcsr_sm_fm_multiply           1126  8.6    0.026    0.029    8.454    8.740
 integrate_four_center_getP         439 10.8    0.969    1.364    8.102    8.340
 transfer_rs2pw_30                  261 11.8    2.828    3.095    7.987    8.175
 mp_isendrecv_dv                 177292 12.3    2.700    8.031    2.700    8.031
 broyden_mixing                      78  6.0    6.836    7.230    7.121    7.344
 calculate_rho_atom_coeff           261  8.8    0.516    0.760    7.308    7.310
 integrate_four_center_dist_KS      439 10.8    0.571    0.608    7.044    7.058
 mp_sendrecv_dv                   66294 12.8    6.090    6.508    6.090    6.508
 calculate_rho0_atom               1040  9.7    5.775    6.159    5.775    6.159
 xc_rho_set_and_dset_create          80 10.0    0.211    0.246    5.287    5.734
 calc_pair_dist_radii                 1 10.0    1.622    1.657    5.453    5.720
 dbcsr_complete_redistribute       3776 10.5    0.229    0.349    5.239    5.522
 tddfpt_print_nto_analysis            1  6.0    0.003    0.004    5.464    5.464
 dbcsr_sym_matrix_vector_mult     18027  7.0    0.297    0.315    5.130    5.290
 cp_fm_geeig                         20  7.0    0.001    0.001    4.898    4.900
 Vh_1c_gg_integrals                 259  9.4    0.173    4.372    4.379    4.461
 dbcsr_multiply_generic            1565 10.3    0.076    0.082    4.225    4.449
 dbcsr_add_d                      27088  7.0    0.025    0.029    0.628    4.316
 dbcsr_add_anytype                27088  8.0    0.043    0.408    0.603    4.289
 mp_isend_dm3                     10406 12.8    1.409    4.069    1.409    4.069
 copy_fm_to_dbcsr                  2545  9.5    0.013    0.015    3.671    3.949
 copy_dbcsr_to_fm                  1229  9.3    0.018    0.020    3.360    3.691
 cp2k_distribution_to_z_slices      259 10.4    1.877    2.081    3.329    3.542
 pw_scatter_p                      2673 12.8    3.128    3.391    3.128    3.391
 cp_dbcsr_sm_fm_multiply_core      1126  9.6    0.004    0.004    3.112    3.348
 dbcsr_finalize                   34416 10.9    0.104    0.879    0.564    2.865
 transfer_pw2rs_90                  259 12.0    0.426    0.484    2.490    2.767
 multiply_cannon                   1565 11.3    0.160    0.166    2.502    2.705
 multiply_cannon_loop              1565 12.3    0.251    0.280    2.091    2.321
 fft_wrap_pw1pw2_90                 520 11.9    0.101    0.119    2.184    2.267
 dbcsr_col_vec_to_rep_row         18027  8.0    0.140    0.158    1.991    2.224
 mp_sum_l                          6005 10.6    1.264    1.977    1.264    1.977
 mp_alltoall_i11v                 12558 11.4    1.902    1.909    1.902    1.909
 dbcsr_desymmetrize_deep           1230 10.3    0.028    0.042    1.563    1.889
 cp_dbcsr_plus_fm_fm_t              259  8.4    0.004    0.005    1.810    1.869
 rs_grid_zero                      1298 11.9    1.541    1.857    1.541    1.857
 mp_irecv_dm3                     10406 12.8    0.544    1.828    0.544    1.828
 integrate_four_center_load         439 10.8    0.002    0.002    1.114    1.826
 hfx_load_balance                     1 11.0    0.000    0.008    1.112    1.824
 pw_gather_p                       2600 13.3    1.640    1.787    1.640    1.787
 mp_alltoall_i22                   5006 11.4    1.313    1.779    1.313    1.779
 tddfpt_orthonormalize_psi1_psi      10  6.9    0.024    0.027    1.755    1.757
 hfx_load_balance_range               1 12.0    0.000    0.001    1.014    1.726
 mp_bcast_dv                      18158  9.0    1.408    1.694    1.408    1.694
 update_ks_atom                     259  8.7    0.399    0.781    1.322    1.672
 parallel_gemm_fm                  1679  8.2    0.002    0.003    1.627    1.672
 parallel_gemm_fm_gemm             1679  9.2    0.002    0.003    1.625    1.669
 cp_fm_gemm                        1679 10.2    1.622    1.667    1.622    1.667
 transfer_pw2rs_10                  259 12.0    0.505    0.553    1.454    1.612
 pw_integral_ab_c1d_c1d_gs          259 10.4    1.370    1.385    1.580    1.612
 transfer_rs2pw_10                  261 11.8    0.482    0.511    1.413    1.515
 create_qs_kind_set                   1  2.0    0.000    0.000    1.477    1.478
 read_qs_kind                         4  3.0    0.851    0.866    1.477    1.478
 dbcsr_merge_all                  32667 11.9    0.229    1.116    0.323    1.465
 multiply_cannon_metrocomm3       25040 13.3    0.076    0.080    1.029    1.461
 tddfpt_apply_energy_diff             9  8.0    0.001    0.001    1.352    1.352
 pw_derive                         2334 11.8    1.233    1.330    1.233    1.330
 pw_copy_to_array                  2600 13.3    0.764    1.301    0.764    1.301
 dbcsr_iterator_start            234540  9.1    0.576    1.021    0.644    1.276
 mp_isend_dv                     101158 13.6    0.828    1.247    0.828    1.247
 tddfpt_compute_residual_vects        8  7.0    0.001    0.001    1.212    1.213
 xc_functional_eval                2152 10.8    0.001    0.008    0.798    1.203
 pbe_lda_eval                      2152 11.8    0.796    1.201    0.796    1.201
 make_m2s                          3130 11.3    0.047    0.057    1.130    1.193
 dbcsr_rep_row_to_rep_col_vec     18027  8.0    0.117    0.134    0.774    1.062
 pw_copy                           3530 11.0    0.977    1.040    0.977    1.040
 make_images                       3130 12.3    0.252    0.289    0.967    1.023
 mp_bcast_dm                      10360  9.7    0.923    0.957    0.923    0.957
 hybrid_alltoall_any               4360 13.5    0.043    0.061    0.766    0.837
 dbcsr_sym_matrix_vector_mult_l   18027  8.0    0.351    0.637    0.555    0.831
 multiply_cannon_metrocomm4       23475 13.3    0.072    0.077    0.327    0.828
 rs_scatter_matrices                261  9.8    0.008    0.011    0.741    0.781
 mp_irecv_dv                     100080 13.6    0.266    0.771    0.266    0.771
 pw_poisson_set                     260 10.4    0.005    0.006    0.726    0.748
 fft_wrap_pw1pw2_30                 520 11.9    0.021    0.022    0.619    0.725
 cp_fm_triangular_multiply           60  8.0    0.711    0.713    0.711    0.713
 dbcsr_copy                       75962  7.7    0.453    0.506    0.641    0.705
 calculate_dm_sparse                 79  6.0    0.001    0.001    0.645    0.699
 pw_poisson_rebuild                 259 10.4    0.000    0.000    0.649    0.665
 ps_wavelet_create                    1 10.0    0.000    0.000    0.649    0.665
 RS_z_slice_distribution              1 11.0    0.582    0.634    0.649    0.665
 cp_fm_symm                          79  7.0    0.619    0.640    0.619    0.640
 parser_read_line                181630  4.0    0.061    0.067    0.626    0.635
 dbcsr_iterator_stop             234540  9.1    0.347    0.571    0.392    0.627
 multiply_cannon_multrec          25040 13.3    0.256    0.616    0.264    0.625
 pw_copy_from_array                2673 12.8    0.512    0.601    0.512    0.601
 dbcsr_work_create                38592 11.9    0.096    0.368    0.152    0.593
 init_scf_run                         1  3.0    0.000    0.000    0.575    0.575
 parser_read_line_low               200  5.0    0.059    0.262    0.565    0.575
 scale_and_distribute               518 11.4    0.472    0.534    0.472    0.534
 broadcast_input_information        200  6.0    0.137    0.148    0.506    0.531
 pw_axpy                           2778 10.8    0.477    0.530    0.477    0.530
 pw_zero                           2820 10.6    0.441    0.499    0.441    0.499
 xc_2nd_deriv_of_r                 1440 10.0    0.005    0.136    0.018    0.498
 dbcsr_work_destroy_all           38592 12.8    0.087    0.337    0.130    0.478
 cp_fm_trace_a1b1t1_aa            16500  8.0    0.110    0.121    0.468    0.477
 tddfpt_construct_ground_state_       1  6.0    0.000    0.000    0.473    0.474
 mp_max_i                           734  5.1    0.344    0.427    0.344    0.427
 dbcsr_scale_anytype              27090  9.0    0.069    0.109    0.341    0.423
 fft_wrap_pw1pw2_10                 520 11.9    0.006    0.007    0.400    0.405
 scf_env_initial_rho_setup            1  4.0    0.000    0.000    0.373    0.373
 dbcsr_create_new                 97276  9.4    0.267    0.283    0.342    0.365
 cp_fm_cholesky_decompose            21  8.0    0.359    0.359    0.359    0.359
 cp_fm_triangular_invert             20  8.0    0.357    0.358    0.357    0.358
 qs_init_subsys                       1  2.0    0.007    0.007    0.353    0.353
 make_images_sizes                 3130 13.3    0.004    0.004    0.309    0.349
 mp_alltoall_i44                   3130 14.3    0.305    0.345    0.305    0.345
 dbcsr_data_new                  509297 11.8    0.157    0.331    0.157    0.331
 offload_free_buffer                267 10.2    0.229    0.329    0.229    0.329
 create_fast_row_vec_access       36054  8.0    0.220    0.243    0.302    0.324
 create_fast_col_vec_access       36054  8.0    0.224    0.242    0.304    0.322
 cp_fm_redistribute_start           131  8.2    0.149    0.262    0.195    0.319
 make_images_data                  3130 13.3    0.040    0.049    0.228    0.315
 qs_env_setup                         1  3.0    0.000    0.000    0.294    0.300
 qs_env_rebuild_pw_env                2  3.5    0.000    0.000    0.292    0.299
 pw_env_rebuild                       1  5.0    0.001    0.001    0.292    0.299
 dbcsr_iterator_seek             234540 10.1    0.068    0.296    0.068    0.296
 mp_cart_sub                       2461 11.3    0.277    0.279    0.277    0.279
 multiply_cannon_metrocomm2       21910 13.3    0.067    0.072    0.142    0.277
 mp_alltoall_z11v                   520 14.9    0.258    0.264    0.258    0.264
 dbcsr_data_release              762127 11.1    0.138    0.259    0.138    0.259
 mp_bcast_am_src                    200  7.0    0.183    0.237    0.202    0.252
 mp_cart_create                    2270 10.6    0.197    0.236    0.199    0.240
 merge_index                      32667 12.9    0.028    0.238    0.028    0.238
 mp_bcast_i_src                     800  7.0    0.160    0.229    0.160    0.229
 cp_fm_power                          1  6.0    0.002    0.004    0.214    0.214
 tddfpt_init_mos                      1  5.0    0.000    0.000    0.207    0.207
 tddfpt_init_ground_state_mos         1  6.0    0.000    0.000    0.207    0.207
 mp_allgather_i34                  1565 12.3    0.135    0.194    0.135    0.194
 eigensolver                          1  7.0    0.000    0.000    0.192    0.193
 pw_grid_setup                        4  6.0    0.000    0.000    0.184    0.191
 pw_grid_setup_internal               4  7.0    0.004    0.005    0.184    0.191
 mp_rank_compare                   5273 14.0    0.178    0.184    0.178    0.184
 multiply_cannon_metrocomm1       25040 13.3    0.040    0.042    0.078    0.182
 prepare_dr1dr                     1620 11.2    0.143    0.174    0.143    0.174
 copy_fm_to_dbcsr_bc               2545 10.5    0.047    0.060    0.145    0.170
 yz_to_xz                           259 14.0    0.008    0.008    0.144    0.148
 tddfpt_compute_ritz_vects            9  7.0    0.004    0.004    0.136    0.137
 xz_to_yz                           261 13.8    0.006    0.007    0.128    0.131
 tddfpt_orthogonalize_psi1_psi0      10  6.9    0.000    0.000    0.119    0.127
 dbcsr_set                        76848  8.6    0.068    0.071    0.100    0.121
 dbcsr_destroy                    61151  9.3    0.072    0.075    0.108    0.115
 pw_grid_sort                         4  8.0    0.076    0.078    0.112    0.115
 vxc_of_r_new                       632  9.0    0.001    0.031    0.004    0.109
 tree_to_linear_d                  3776 13.5    0.051    0.109    0.051    0.109
 -------------------------------------------------------------------------------

 The number of warnings for this run is : 2
 
 -------------------------------------------------------------------------------
  **** **** ******  **  PROGRAM ENDED AT                 2025-04-14 09:30:08.855
 ***** ** ***  *** **   PROGRAM RAN ON                              i03r05c02s07
 **    ****   ******    PROGRAM RAN BY                                   di38fab
 ***** **    ** ** **   PROGRAM PROCESS ID                               1906326
  **** **  *******  **  PROGRAM STOPPED IN /hppfs/scratch/04/di38fab/05_MOL/aUKB
                                           qsEOTmq69kFe5R_nOg/5k_set_final_qzvp/
                                           TRDMPP01/aug-cc-pVQZ/TDDFT
