SIRIUS 7.5.2, git hash: https://api.github.com/repos/electronic-structure/SIRIUS/git/ref/tags/v7.5.2
 DBCSR| CPU Multiplication driver                                           XSMM (U)
 DBCSR| Multrec recursion limit                                              512 (U)
 DBCSR| Multiplication stack size                                           1000 (D)
 DBCSR| Maximum elements for images                                    UNLIMITED (U)
 DBCSR| Multiplicative factor virtual images                                   1 (U)
 DBCSR| Use multiplication densification                                       T (D)
 DBCSR| Multiplication size stacks                                             3 (U)
 DBCSR| Use memory pool for CPU allocation                                     F (U)
 DBCSR| Number of 3D layers                                               SINGLE (U)
 DBCSR| Use MPI memory allocation                                              F (U)
 DBCSR| Use RMA algorithm                                                      F (U)
 DBCSR| Use Communication thread                                               T (U)
 DBCSR| Communication thread load                                             75 (D)
 DBCSR| MPI: My process id                                                     0
 DBCSR| MPI: Number of processes                                             192
 DBCSR| OMP: Current number of threads                                         4
 DBCSR| OMP: Max number of threads                                             4
 DBCSR| Split modifier for TAS multiplication algorithm                  1.0E+00 (U)


  **** **** ******  **  PROGRAM STARTED AT               2025-03-22 17:15:26.863
 ***** ** ***  *** **   PROGRAM STARTED ON                 n2cn0349.ab2021.local
 **    ****   ******    PROGRAM STARTED BY                              metdyn02
 ***** **    ** ** **   PROGRAM PROCESS ID                                520299
  **** **  *******  **  PROGRAM STARTED IN /scratch/hpc-prf-metdyn/metdyn02_Remi
                                           /10_MOL/05_MOL/aUKBqsEOTmq69kFe5R_nOg
                                           /5k_set_final_qzvp/DCACON/SZV/TDDFT/R
                                           ILIM

 CP2K| version string:                 CP2K version 2025.1 (Development Version)
 CP2K| source code revision number:                                  git:f0c7327
 CP2K| cp2kflags: omp libint fftw3 libxc libgrpp elpa parallel scalapack mpi_f08
 CP2K|             cosma xsmm plumed2 spglib sirius libvori libbqb libvdwxc hdf5
 CP2K| is freely available from                            https://www.cp2k.org/
 CP2K| Program compiled at                          Wed Mar 12 18:25:30 CET 2025
 CP2K| Program compiled on                                              n2login1
 CP2K| Program compiled for                                                local
 CP2K| Data directory path    /opt/software/pc2/EB-SW/software/CP2K/2024.1-foss-
 CP2K| Input file name                                                    GW.inp

 GLOBAL| Force Environment number                                              1
 GLOBAL| Basis set file name            /scratch/hpc-prf-metdyn/metdyn02_Remi/BA
 GLOBAL| Potential file name            /pc2/groups/hpc-prf-metdyn/metdyn02_Remi
 GLOBAL| MM Potential file name                                     MM_POTENTIAL
 GLOBAL| Coordinate file name                                      __STD_INPUT__
 GLOBAL| Method name                                                        CP2K
 GLOBAL| Project name                                                       MoS2
 GLOBAL| Run type                                                         ENERGY
 GLOBAL| FFT library                                                       FFTW3
 GLOBAL| Diagonalization library                                            ELPA
 GLOBAL| DGEMM library                                                      BLAS
 GLOBAL| Minimum number of eigenvectors for ELPA usage                        16
 GLOBAL| Orthonormality check for eigenvectors                          DISABLED
 GLOBAL| Matrix multiplication library                                     COSMA
 GLOBAL| All-to-all communication in single precision                          F
 GLOBAL| FFTs using library dependent lengths                                  F
 GLOBAL| Grid backend                                                       AUTO
 GLOBAL| Global print level                                               MEDIUM
 GLOBAL| MPI I/O enabled                                                       T
 GLOBAL| Total number of message passing processes                           192
 GLOBAL| Number of threads for this process                                    4
 GLOBAL| This output is from process                                           0
 GLOBAL| OpenMP stack size per thread (OMP_STACKSIZE)                    default
 GLOBAL| CPU model name                          AMD EPYC 7763 64-Core Processor
 GLOBAL| CPUID                                                              1002

 MEMORY| system memory details [Kb]
 MEMORY|                        rank 0           min           max       average
 MEMORY| MemTotal            263899260     263899256     263899264     263899260
 MEMORY| MemFree             243150920     241570476     247127644     244138994
 MEMORY| Buffers                197064         54832        223620        157833
 MEMORY| Cached                7140352       4476444       7781924       6173612
 MEMORY| Slab                  2238300       1694340       3119980       2296708
 MEMORY| SReclaimable           390624        235492        737348        417283
 MEMORY| MemLikelyFree       250878960     250218264     251894412     250887724


 *** Fundamental physical constants (SI units) ***

 *** Literature: B. J. Mohr and B. N. Taylor,
 ***             CODATA recommended values of the fundamental physical
 ***             constants: 2006, Web Version 5.1
 ***             http://physics.nist.gov/constants

 Speed of light in vacuum [m/s]                             2.99792458000000E+08
 Magnetic constant or permeability of vacuum [N/A**2]       1.25663706143592E-06
 Electric constant or permittivity of vacuum [F/m]          8.85418781762039E-12
 Planck constant (h) [J*s]                                  6.62606896000000E-34
 Planck constant (h-bar) [J*s]                              1.05457162825177E-34
 Elementary charge [C]                                      1.60217648700000E-19
 Electron mass [kg]                                         9.10938215000000E-31
 Electron g factor [ ]                                     -2.00231930436220E+00
 Proton mass [kg]                                           1.67262163700000E-27
 Fine-structure constant                                    7.29735253760000E-03
 Rydberg constant [1/m]                                     1.09737315685270E+07
 Avogadro constant [1/mol]                                  6.02214179000000E+23
 Boltzmann constant [J/K]                                   1.38065040000000E-23
 Atomic mass unit [kg]                                      1.66053878200000E-27
 Bohr radius [m]                                            5.29177208590000E-11

 *** Conversion factors ***

 [u] -> [a.u.]                                              1.82288848426455E+03
 [Angstrom] -> [Bohr] = [a.u.]                              1.88972613288564E+00
 [a.u.] = [Bohr] -> [Angstrom]                              5.29177208590000E-01
 [a.u.] -> [s]                                              2.41888432650478E-17
 [a.u.] -> [fs]                                             2.41888432650478E-02
 [a.u.] -> [J]                                              4.35974393937059E-18
 [a.u.] -> [N]                                              8.23872205491840E-08
 [a.u.] -> [K]                                              3.15774647902944E+05
 [a.u.] -> [kJ/mol]                                         2.62549961709828E+03
 [a.u.] -> [kcal/mol]                                       6.27509468713739E+02
 [a.u.] -> [Pa]                                             2.94210107994716E+13
 [a.u.] -> [bar]                                            2.94210107994716E+08
 [a.u.] -> [atm]                                            2.90362800883016E+08
 [a.u.] -> [eV]                                             2.72113838565563E+01
 [a.u.] -> [Hz]                                             6.57968392072181E+15
 [a.u.] -> [1/cm] (wave numbers)                            2.19474631370540E+05
 [a.u./Bohr**2] -> [1/cm]                                   5.14048714338585E+03
 

 CELL_TOP| Volume [angstrom^3]:                                     27000.000000
 CELL_TOP| Vector a [angstrom    30.000     0.000     0.000   |a| =    30.000000
 CELL_TOP| Vector b [angstrom     0.000    30.000     0.000   |b| =    30.000000
 CELL_TOP| Vector c [angstrom     0.000     0.000    30.000   |c| =    30.000000
 CELL_TOP| Angle (b,c), alpha [degree]:                                90.000000
 CELL_TOP| Angle (a,c), beta  [degree]:                                90.000000
 CELL_TOP| Angle (a,b), gamma [degree]:                                90.000000
 CELL_TOP| Numerically orthorhombic:                                         YES
 CELL_TOP| Periodicity                                                      NONE

 GENERATE|  Preliminary Number of Bonds generated:                             0
 GENERATE|  Achieved consistency in connectivity generation.

 CELL| Volume [angstrom^3]:                                         27000.000000
 CELL| Vector a [angstrom]:      30.000     0.000     0.000   |a| =    30.000000
 CELL| Vector b [angstrom]:       0.000    30.000     0.000   |b| =    30.000000
 CELL| Vector c [angstrom]:       0.000     0.000    30.000   |c| =    30.000000
 CELL| Angle (b,c), alpha [degree]:                                    90.000000
 CELL| Angle (a,c), beta  [degree]:                                    90.000000
 CELL| Angle (a,b), gamma [degree]:                                    90.000000
 CELL| Numerically orthorhombic:                                             YES
 CELL| Periodicity                                                          NONE

 CELL_REF| Volume [angstrom^3]:                                     27000.000000
 CELL_REF| Vector a [angstrom    30.000     0.000     0.000   |a| =    30.000000
 CELL_REF| Vector b [angstrom     0.000    30.000     0.000   |b| =    30.000000
 CELL_REF| Vector c [angstrom     0.000     0.000    30.000   |c| =    30.000000
 CELL_REF| Angle (b,c), alpha [degree]:                                90.000000
 CELL_REF| Angle (a,c), beta  [degree]:                                90.000000
 CELL_REF| Angle (a,b), gamma [degree]:                                90.000000
 CELL_REF| Numerically orthorhombic:                                         YES
 CELL_REF| Periodicity                                                      NONE

 *******************************************************************************
 *******************************************************************************
 **                                                                           **
 **     #####                         ##              ##                      **
 **    ##   ##            ##          ##              ##                      **
 **   ##     ##                       ##            ######                    **
 **   ##     ##  ##   ##  ##   #####  ##  ##   ####   ##    #####    #####    **
 **   ##     ##  ##   ##  ##  ##      ## ##   ##      ##   ##   ##  ##   ##   **
 **   ##  ## ##  ##   ##  ##  ##      ####     ###    ##   ######   ######    **
 **    ##  ###   ##   ##  ##  ##      ## ##      ##   ##   ##       ##        **
 **     #######   #####   ##   #####  ##  ##  ####    ##    #####   ##        **
 **           ##                                                    ##        **
 **                                                                           **
 **                                                ... make the atoms dance   **
 **                                                                           **
 **            Copyright (C) by CP2K developers group (2000-2025)             **
 **                      J. Chem. Phys. 152, 194103 (2020)                    **
 **                                                                           **
 *******************************************************************************

 DFT| Spin restricted Kohn-Sham (RKS) calculation                            RKS
 DFT| Multiplicity                                                             1
 DFT| Number of spin states                                                    1
 DFT| Charge                                                                   0
 DFT| Self-interaction correction (SIC)                                       NO
 DFT| Cutoffs: density                                              1.000000E-10
 DFT|          gradient                                             1.000000E-10
 DFT|          tau                                                  1.000000E-10
 DFT|          cutoff_smoothing_range                               0.000000E+00
 DFT| XC density smoothing                                                  NONE
 DFT| XC derivatives                                                          PW

 FUNCTIONAL| PBE:
 FUNCTIONAL| J.P.Perdew, K.Burke, M.Ernzerhof, Phys. Rev. Letter, vol. 77, n 18,
 FUNCTIONAL|  pp. 3865-3868, (1996)sx=0.750sc=1.000{spin unpolarized}           


 QS| Method:                                                                GAPW
 QS| Density plane wave grid type                        NON-SPHERICAL FULLSPACE
 QS| Number of grid levels:                                                    4
 QS| Density cutoff [a.u.]:                                                250.0
 QS| Multi grid cutoff [a.u.]: 1) grid level                               250.0
 QS|                           2) grid level                                83.3
 QS|                           3) grid level                                27.8
 QS|                           4) grid level                                 9.3
 QS| Grid level progression factor:                                          3.0
 QS| Relative density cutoff [a.u.]:                                        50.0
 QS| Interaction thresholds: eps_pgf_orb:                                1.0E-12
 QS|                         eps_filter_matrix:                          0.0E+00
 QS|                         eps_core_charge:                            1.0E-14
 QS|                         eps_rho_gspace:                             1.0E-12
 QS|                         eps_rho_rspace:                             1.0E-12
 QS|                         eps_gvg_rspace:                             1.0E-06
 QS|                         eps_ppl:                                    1.0E-02
 QS|                         eps_ppnl:                                   1.0E-08
 QS| GAPW|      One center basis from orbital basis primitives
 QS| GAPW|                   eps_fit:                                    1.0E-04
 QS| GAPW|                   eps_iso:                                    1.0E-12
 QS| GAPW|                   eps_svd:                                    1.0E-08
 QS| GAPW|                   eps_cpc:                                    1.0E-12
 QS| GAPW|   atom-r-grid: quadrature:                                     GC_LOG
 QS| GAPW|      atom-s-grid:  max l :                                          4
 QS| GAPW|      max_l_rho0 :                                                   2


 ATOMIC KIND INFORMATION

  1. Atomic kind: Cl                                    Number of atoms:       2

     Orbital Basis Set                                         aug-SZV-MOLOPT-ae

       Number of orbital shell sets:                                           3
       Number of orbital shells:                                               8
       Number of primitive Cartesian functions:                               19
       Number of Cartesian basis functions:                                   19
       Number of spherical basis functions:                                   18
       Norm type:                                                              2

       Normalised Cartesian orbitals:

                        Set   Shell   Orbital            Exponent    Coefficient

                          1       1    1s                0.077000       0.000000
                                                         0.155732       0.048775
                                                         0.302177       0.213641
                                                         0.610646       0.074372
                                                         1.364210      -0.160589
                                                         3.637791      -0.133295
                                                        13.583529      -0.040055

                          1       2    2s                0.077000       0.113098
                                                         0.155732      -0.001418
                                                         0.302177      -0.032953
                                                         0.610646       0.000940
                                                         1.364210      -0.000650
                                                         3.637791      -0.006480
                                                        13.583529       0.000000

                          1       3    2px               0.077000       0.000000
                                                         0.155732       0.014765
                                                         0.302177       0.156150
                                                         0.610646       0.318942
                                                         1.364210       0.160173
                                                         3.637791      -0.130999
                                                        13.583529      -0.265378
                          1       3    2py               0.077000       0.000000
                                                         0.155732       0.014765
                                                         0.302177       0.156150
                                                         0.610646       0.318942
                                                         1.364210       0.160173
                                                         3.637791      -0.130999
                                                        13.583529      -0.265378
                          1       3    2pz               0.077000       0.000000
                                                         0.155732       0.014765
                                                         0.302177       0.156150
                                                         0.610646       0.318942
                                                         1.364210       0.160173
                                                         3.637791      -0.130999
                                                        13.583529      -0.265378

                          1       4    3px               0.077000       0.044533
                                                         0.155732       0.031887
                                                         0.302177       0.011087
                                                         0.610646      -0.025806
                                                         1.364210       0.119111
                                                         3.637791       0.324938
                                                        13.583529       0.000000
                          1       4    3py               0.077000       0.044533
                                                         0.155732       0.031887
                                                         0.302177       0.011087
                                                         0.610646      -0.025806
                                                         1.364210       0.119111
                                                         3.637791       0.324938
                                                        13.583529       0.000000
                          1       4    3pz               0.077000       0.044533
                                                         0.155732       0.031887
                                                         0.302177       0.011087
                                                         0.610646      -0.025806
                                                         1.364210       0.119111
                                                         3.637791       0.324938
                                                        13.583529       0.000000

                          1       5    3dx2              0.077000       0.003672
                                                         0.155732       0.001893
                                                         0.302177       0.117944
                                                         0.610646       0.097225
                                                         1.364210       0.782555
                                                         3.637791       0.872236
                                                        13.583529       0.000000
                          1       5    3dxy              0.077000       0.006359
                                                         0.155732       0.003279
                                                         0.302177       0.204285
                                                         0.610646       0.168398
                                                         1.364210       1.355425
                                                         3.637791       1.510758
                                                        13.583529       0.000000
                          1       5    3dxz              0.077000       0.006359
                                                         0.155732       0.003279
                                                         0.302177       0.204285
                                                         0.610646       0.168398
                                                         1.364210       1.355425
                                                         3.637791       1.510758
                                                        13.583529       0.000000
                          1       5    3dy2              0.077000       0.003672
                                                         0.155732       0.001893
                                                         0.302177       0.117944
                                                         0.610646       0.097225
                                                         1.364210       0.782555
                                                         3.637791       0.872236
                                                        13.583529       0.000000
                          1       5    3dyz              0.077000       0.006359
                                                         0.155732       0.003279
                                                         0.302177       0.204285
                                                         0.610646       0.168398
                                                         1.364210       1.355425
                                                         3.637791       1.510758
                                                        13.583529       0.000000
                          1       5    3dz2              0.077000       0.003672
                                                         0.155732       0.001893
                                                         0.302177       0.117944
                                                         0.610646       0.097225
                                                         1.364210       0.782555
                                                         3.637791       0.872236
                                                        13.583529       0.000000

                          2       1    1s              403.972966      -0.851102
                                                        79.956793      -0.895515
                                                        24.850512      -0.268003
                                                         9.560888       0.969714
                                                         4.152300       1.233756
                                                         1.903303       0.277989

                          2       2    2px             403.972966       9.705843
                                                        79.956793      12.841416
                                                        24.850512      13.753103
                                                         9.560888      10.017907
                                                         4.152300       3.598052
                                                         1.903303       0.324102
                          2       2    2py             403.972966       9.705843
                                                        79.956793      12.841416
                                                        24.850512      13.753103
                                                         9.560888      10.017907
                                                         4.152300       3.598052
                                                         1.903303       0.324102
                          2       2    2pz             403.972966       9.705843
                                                        79.956793      12.841416
                                                        24.850512      13.753103
                                                         9.560888      10.017907
                                                         4.152300       3.598052
                                                         1.903303       0.324102

                          3       1    1s             6236.545525       4.583362
                                                      1143.463795       6.917755
                                                       319.899964       9.085929
                                                       109.894271       8.964028
                                                        42.675161       4.956187
                                                        17.575988       0.797366

     RI Auxiliary Basis Set             RI_aug-SZV-MOLOPT-ae_N_RI_112_s_p_d_f_g_

       Number of orbital shell sets:                                          24
       Number of orbital shells:                                              24
       Number of primitive Cartesian functions:                               24
       Number of Cartesian basis functions:                                  167
       Number of spherical basis functions:                                  112
       Norm type:                                                              2

       Normalised Cartesian orbitals:

                        Set   Shell   Orbital            Exponent    Coefficient

                          1       1   20gx4              0.279015       0.033259
                          1       1   20gx3y             0.279015       0.087996
                          1       1   20gx3z             0.279015       0.087996
                          1       1   20gx2y2            0.279015       0.113602
                          1       1   20gx2yz            0.279015       0.196764
                          1       1   20gx2z2            0.279015       0.113602
                          1       1   20gxy3             0.279015       0.087996
                          1       1   20gxy2z            0.279015       0.196764
                          1       1   20gxyz2            0.279015       0.196764
                          1       1   20gxz3             0.279015       0.087996
                          1       1   20gy4              0.279015       0.033259
                          1       1   20gy3z             0.279015       0.087996
                          1       1   20gy2z2            0.279015       0.113602
                          1       1   20gyz3             0.279015       0.087996
                          1       1   20gz4              0.279015       0.033259

                          2       1    8px               0.330765       0.357552
                          2       1    8py               0.330765       0.357552
                          2       1    8pz               0.330765       0.357552

                          3       1    1s                0.339703       0.317128

                          4       1   14dx2              0.562661       0.601646
                          4       1   14dxy              0.562661       1.042081
                          4       1   14dxz              0.562661       1.042081
                          4       1   14dy2              0.562661       0.601646
                          4       1   14dyz              0.562661       1.042081
                          4       1   14dz2              0.562661       0.601646

                          5       1   17fx3              0.671109       0.600120
                          5       1   17fx2y             0.671109       1.341909
                          5       1   17fx2z             0.671109       1.341909
                          5       1   17fxy2             0.671109       1.341909
                          5       1   17fxyz             0.671109       2.324255
                          5       1   17fxz2             0.671109       1.341909
                          5       1   17fy3              0.671109       0.600120
                          5       1   17fy2z             0.671109       1.341909
                          5       1   17fyz2             0.671109       1.341909
                          5       1   17fz3              0.671109       0.600120

                          6       1    2s                0.711571       0.552172

                          7       1    9px               0.728662       0.959616
                          7       1    9py               0.728662       0.959616
                          7       1    9pz               0.728662       0.959616

                          8       1   21gx4              1.066208       1.327398
                          8       1   21gx3y             1.066208       3.511964
                          8       1   21gx3z             1.066208       3.511964
                          8       1   21gx2y2            1.066208       4.533926
                          8       1   21gx2yz            1.066208       7.852990
                          8       1   21gx2z2            1.066208       4.533926
                          8       1   21gxy3             1.066208       3.511964
                          8       1   21gxy2z            1.066208       7.852990
                          8       1   21gxyz2            1.066208       7.852990
                          8       1   21gxz3             1.066208       3.511964
                          8       1   21gy4              1.066208       1.327398
                          8       1   21gy3z             1.066208       3.511964
                          8       1   21gy2z2            1.066208       4.533926
                          8       1   21gyz3             1.066208       3.511964
                          8       1   21gz4              1.066208       1.327398

                          9       1   15dx2              1.149113       2.099155
                          9       1   15dxy              1.149113       3.635843
                          9       1   15dxz              1.149113       3.635843
                          9       1   15dy2              1.149113       2.099155
                          9       1   15dyz              1.149113       3.635843
                          9       1   15dz2              1.149113       2.099155

                         10       1   18fx3              1.633659       4.441887
                         10       1   18fx2y             1.633659       9.932362
                         10       1   18fx2z             1.633659       9.932362
                         10       1   18fxy2             1.633659       9.932362
                         10       1   18fxyz             1.633659      17.203356
                         10       1   18fxz2             1.633659       9.932362
                         10       1   18fy3              1.633659       4.441887
                         10       1   18fy2z             1.633659       9.932362
                         10       1   18fyz2             1.633659       9.932362
                         10       1   18fz3              1.633659       4.441887

                         11       1   23hx5              1.666224       3.899222
                         11       1   23hx4y             1.666224      11.697667
                         11       1   23hx4z             1.666224      11.697667
                         11       1   23hx3y2            1.666224      17.868481
                         11       1   23hx3yz            1.666224      30.949117
                         11       1   23hx3z2            1.666224      17.868481
                         11       1   23hx2y3            1.666224      17.868481
                         11       1   23hx2y2z           1.666224      39.955139
                         11       1   23hx2yz2           1.666224      39.955139
                         11       1   23hx2z3            1.666224      17.868481
                         11       1   23hxy4             1.666224      11.697667
                         11       1   23hxy3z            1.666224      30.949117
                         11       1   23hxy2z2           1.666224      39.955139
                         11       1   23hxyz3            1.666224      30.949117
                         11       1   23hxz4             1.666224      11.697667
                         11       1   23hy5              1.666224       3.899222
                         11       1   23hy4z             1.666224      11.697667
                         11       1   23hy3z2            1.666224      17.868481
                         11       1   23hy2z3            1.666224      17.868481
                         11       1   23hyz4             1.666224      11.697667
                         11       1   23hz5              1.666224       3.899222

                         12       1   24ix6              1.924248       5.207825
                         12       1   24ix5y             1.924248      17.272401
                         12       1   24ix5z             1.924248      17.272401
                         12       1   24ix4y2            1.924248      29.916676
                         12       1   24ix4yz            1.924248      51.817204
                         12       1   24ix4z2            1.924248      29.916676
                         12       1   24ix3y3            1.924248      35.397889
                         12       1   24ix3y2z           1.924248      79.152086
                         12       1   24ix3yz2           1.924248      79.152086
                         12       1   24ix3z3            1.924248      35.397889
                         12       1   24ix2y4            1.924248      29.916676
                         12       1   24ix2y3z           1.924248      79.152086
                         12       1   24ix2y2z2          1.924248     102.184904
                         12       1   24ix2yz3           1.924248      79.152086
                         12       1   24ix2z4            1.924248      29.916676
                         12       1   24ixy5             1.924248      17.272401
                         12       1   24ixy4z            1.924248      51.817204
                         12       1   24ixy3z2           1.924248      79.152086
                         12       1   24ixy2z3           1.924248      79.152086
                         12       1   24ixyz4            1.924248      51.817204
                         12       1   24ixz5             1.924248      17.272401
                         12       1   24iy6              1.924248       5.207825
                         12       1   24iy5z             1.924248      17.272401
                         12       1   24iy4z2            1.924248      29.916676
                         12       1   24iy3z3            1.924248      35.397889
                         12       1   24iy2z4            1.924248      29.916676
                         12       1   24iyz5             1.924248      17.272401
                         12       1   24iz6              1.924248       5.207825

                         13       1   22gx4              2.220982       9.986982
                         13       1   22gx3y             2.220982      26.423072
                         13       1   22gx3z             2.220982      26.423072
                         13       1   22gx2y2            2.220982      34.112039
                         13       1   22gx2yz            2.220982      59.083785
                         13       1   22gx2z2            2.220982      34.112039
                         13       1   22gxy3             2.220982      26.423072
                         13       1   22gxy2z            2.220982      59.083785
                         13       1   22gxyz2            2.220982      59.083785
                         13       1   22gxz3             2.220982      26.423072
                         13       1   22gy4              2.220982       9.986982
                         13       1   22gy3z             2.220982      26.423072
                         13       1   22gy2z2            2.220982      34.112039
                         13       1   22gyz3             2.220982      26.423072
                         13       1   22gz4              2.220982       9.986982

                         14       1    3s                2.450225       1.395772

                         15       1   10px               3.102999       5.870393
                         15       1   10py               3.102999       5.870393
                         15       1   10pz               3.102999       5.870393

                         16       1   19fx3              7.124016     122.063406
                         16       1   19fx2y             7.124016     272.942072
                         16       1   19fx2z             7.124016     272.942072
                         16       1   19fxy2             7.124016     272.942072
                         16       1   19fxyz             7.124016     472.749537
                         16       1   19fxz2             7.124016     272.942072
                         16       1   19fy3              7.124016     122.063406
                         16       1   19fy2z             7.124016     272.942072
                         16       1   19fyz2             7.124016     272.942072
                         16       1   19fz3              7.124016     122.063406

                         17       1    4s                8.846809       3.655948

                         18       1   11px              11.089446      28.845456
                         18       1   11py              11.089446      28.845456
                         18       1   11pz              11.089446      28.845456

                         19       1   16dx2             26.850040     521.270449
                         19       1   16dxy             26.850040     902.866903
                         19       1   16dxz             26.850040     902.866903
                         19       1   16dy2             26.850040     521.270449
                         19       1   16dyz             26.850040     902.866903
                         19       1   16dz2             26.850040     521.270449

                         20       1    5s               32.149471       9.622556

                         21       1   12px              38.748652     137.803687
                         21       1   12py              38.748652     137.803687
                         21       1   12pz              38.748652     137.803687

                         22       1    6s              116.893242      25.336822

                         23       1   13px             135.032822     656.129050
                         23       1   13py             135.032822     656.129050
                         23       1   13pz             135.032822     656.129050

                         24       1    7s              425.072226      66.720169

       Atomic covalent radius [Angstrom]:                                  0.990

       Atomic van der Waals radius [Angstrom]:                             1.750

     The atoms of this atomic kind are PAW atoms (GAPW):
       Hard Gaussian function radius:                                      1.512
       Rho0 radius:                                                        1.512
       Maximum GTO radius used for PAW projector construction:            24.566

     GAPW Soft Basis Set                                  aug-SZV-MOLOPT-ae_soft

       Number of orbital shell sets:                                           3
       Number of orbital shells:                                               8
       Number of primitive Cartesian functions:                                8
       Number of Cartesian basis functions:                                   19
       Number of spherical basis functions:                                   18
       Norm type:                                                              2

       Normalised Cartesian orbitals:

                        Set   Shell   Orbital            Exponent    Coefficient

                          1       1    1s                0.077000       0.000000
                                                         0.155732       0.048775
                                                         0.302177       0.213641
                                                         0.610646       0.074372
                                                         1.364210      -0.160589
                                                         3.637791      -0.133295

                          1       2    2s                0.077000       0.113098
                                                         0.155732      -0.001418
                                                         0.302177      -0.032953
                                                         0.610646       0.000940
                                                         1.364210      -0.000650
                                                         3.637791      -0.006480

                          1       3    2px               0.077000       0.000000
                                                         0.155732       0.014765
                                                         0.302177       0.156150
                                                         0.610646       0.318942
                                                         1.364210       0.160173
                                                         3.637791      -0.130999
                          1       3    2py               0.077000       0.000000
                                                         0.155732       0.014765
                                                         0.302177       0.156150
                                                         0.610646       0.318942
                                                         1.364210       0.160173
                                                         3.637791      -0.130999
                          1       3    2pz               0.077000       0.000000
                                                         0.155732       0.014765
                                                         0.302177       0.156150
                                                         0.610646       0.318942
                                                         1.364210       0.160173
                                                         3.637791      -0.130999

                          1       4    3px               0.077000       0.044533
                                                         0.155732       0.031887
                                                         0.302177       0.011087
                                                         0.610646      -0.025806
                                                         1.364210       0.119111
                                                         3.637791       0.324938
                          1       4    3py               0.077000       0.044533
                                                         0.155732       0.031887
                                                         0.302177       0.011087
                                                         0.610646      -0.025806
                                                         1.364210       0.119111
                                                         3.637791       0.324938
                          1       4    3pz               0.077000       0.044533
                                                         0.155732       0.031887
                                                         0.302177       0.011087
                                                         0.610646      -0.025806
                                                         1.364210       0.119111
                                                         3.637791       0.324938

                          1       5    3dx2              0.077000       0.003672
                                                         0.155732       0.001893
                                                         0.302177       0.117944
                                                         0.610646       0.097225
                                                         1.364210       0.782555
                                                         3.637791       0.872236
                          1       5    3dxy              0.077000       0.006359
                                                         0.155732       0.003279
                                                         0.302177       0.204285
                                                         0.610646       0.168398
                                                         1.364210       1.355425
                                                         3.637791       1.510758
                          1       5    3dxz              0.077000       0.006359
                                                         0.155732       0.003279
                                                         0.302177       0.204285
                                                         0.610646       0.168398
                                                         1.364210       1.355425
                                                         3.637791       1.510758
                          1       5    3dy2              0.077000       0.003672
                                                         0.155732       0.001893
                                                         0.302177       0.117944
                                                         0.610646       0.097225
                                                         1.364210       0.782555
                                                         3.637791       0.872236
                          1       5    3dyz              0.077000       0.006359
                                                         0.155732       0.003279
                                                         0.302177       0.204285
                                                         0.610646       0.168398
                                                         1.364210       1.355425
                                                         3.637791       1.510758
                          1       5    3dz2              0.077000       0.003672
                                                         0.155732       0.001893
                                                         0.302177       0.117944
                                                         0.610646       0.097225
                                                         1.364210       0.782555
                                                         3.637791       0.872236

                          2       1    1s                4.152300       0.000000
                                                         1.903303       0.277989

                          2       2    2px               4.152300       3.598052
                                                         1.903303       0.324102
                          2       2    2py               4.152300       3.598052
                                                         1.903303       0.324102
                          2       2    2pz               4.152300       3.598052
                                                         1.903303       0.324102

                          3       1    1s         

     AE Potential information for                                            ALL

       Description:                                       All-electron potential
                                          Krack, Parrinello, PCCP 2, 2105 (2000)

       Gaussian exponent of the core charge distribution:               2.974420
       Electronic configuration (s p d ...):                           6  11   0

  2. Atomic kind: C                                     Number of atoms:       3

     Orbital Basis Set                                         aug-SZV-MOLOPT-ae

       Number of orbital shell sets:                                           2
       Number of orbital shells:                                               6
       Number of primitive Cartesian functions:                               13
       Number of Cartesian basis functions:                                   15
       Number of spherical basis functions:                                   14
       Norm type:                                                              2

       Normalised Cartesian orbitals:

                        Set   Shell   Orbital            Exponent    Coefficient

                          1       1    2s                0.070000       0.000000
                                                         0.143687       0.040037
                                                         0.313471       0.177689
                                                         0.721783       0.139661
                                                         1.876046      -0.038599
                                                         6.036200      -0.128975
                                                        30.497239      -0.122578

                          1       2    3s                0.070000      -0.142268
                                                         0.143687       0.288819
                                                         0.313471       0.010360
                                                         0.721783       0.175994
                                                         1.876046       0.000000
                                                         6.036200       0.000000
                                                        30.497239       0.000000

                          1       3    3px               0.070000       0.000000
                                                         0.143687       0.012825
                                                         0.313471       0.142381
                                                         0.721783       0.396426
                                                         1.876046       0.544234
                                                         6.036200       0.508157
                                                        30.497239       0.384077
                          1       3    3py               0.070000       0.000000
                                                         0.143687       0.012825
                                                         0.313471       0.142381
                                                         0.721783       0.396426
                                                         1.876046       0.544234
                                                         6.036200       0.508157
                                                        30.497239       0.384077
                          1       3    3pz               0.070000       0.000000
                                                         0.143687       0.012825
                                                         0.313471       0.142381
                                                         0.721783       0.396426
                                                         1.876046       0.544234
                                                         6.036200       0.508157
                                                        30.497239       0.384077

                          1       4    4px               0.070000       0.076505
                                                         0.143687      -0.086104
                                                         0.313471       0.010230
                                                         0.721783       0.129894
                                                         1.876046       0.000000
                                                         6.036200       0.000000
                                                        30.497239       0.000000
                          1       4    4py               0.070000       0.076505
                                                         0.143687      -0.086104
                                                         0.313471       0.010230
                                                         0.721783       0.129894
                                                         1.876046       0.000000
                                                         6.036200       0.000000
                                                        30.497239       0.000000
                          1       4    4pz               0.070000       0.076505
                                                         0.143687      -0.086104
                                                         0.313471       0.010230
                                                         0.721783       0.129894
                                                         1.876046       0.000000
                                                         6.036200       0.000000
                                                        30.497239       0.000000

                          1       5    4dx2              0.070000       0.004316
                                                         0.143687       0.012639
                                                         0.313471       0.125057
                                                         0.721783       0.080411
                                                         1.876046       0.000000
                                                         6.036200       0.000000
                                                        30.497239       0.000000
                          1       5    4dxy              0.070000       0.007476
                                                         0.143687       0.021892
                                                         0.313471       0.216606
                                                         0.721783       0.139276
                                                         1.876046       0.000000
                                                         6.036200       0.000000
                                                        30.497239       0.000000
                          1       5    4dxz              0.070000       0.007476
                                                         0.143687       0.021892
                                                         0.313471       0.216606
                                                         0.721783       0.139276
                                                         1.876046       0.000000
                                                         6.036200       0.000000
                                                        30.497239       0.000000
                          1       5    4dy2              0.070000       0.004316
                                                         0.143687       0.012639
                                                         0.313471       0.125057
                                                         0.721783       0.080411
                                                         1.876046       0.000000
                                                         6.036200       0.000000
                                                        30.497239       0.000000
                          1       5    4dyz              0.070000       0.007476
                                                         0.143687       0.021892
                                                         0.313471       0.216606
                                                         0.721783       0.139276
                                                         1.876046       0.000000
                                                         6.036200       0.000000
                                                        30.497239       0.000000
                          1       5    4dz2              0.070000       0.004316
                                                         0.143687       0.012639
                                                         0.313471       0.125057
                                                         0.721783       0.080411
                                                         1.876046       0.000000
                                                         6.036200       0.000000
                                                        30.497239       0.000000

                          2       1    1s              742.737049       0.929185
                                                       136.180025       1.402437
                                                        38.098264       1.841991
                                                        13.087782       1.817278
                                                         5.082369       1.004768
                                                         2.093200       0.161650

     RI Auxiliary Basis Set             RI_aug-SZV-MOLOPT-ae_N_RI_048_s_p_d_f_g_

       Number of orbital shell sets:                                          14
       Number of orbital shells:                                              14
       Number of primitive Cartesian functions:                               14
       Number of Cartesian basis functions:                                   62
       Number of spherical basis functions:                                   48
       Norm type:                                                              2

       Normalised Cartesian orbitals:

                        Set   Shell   Orbital            Exponent    Coefficient

                          1       1    1s                0.182132       0.198701

                          2       1    7px               0.213594       0.206979
                          2       1    7py               0.213594       0.206979
                          2       1    7pz               0.213594       0.206979

                          3       1   10dx2              0.381125       0.304282
                          3       1   10dxy              0.381125       0.527033
                          3       1   10dxz              0.381125       0.527033
                          3       1   10dy2              0.381125       0.304282
                          3       1   10dyz              0.381125       0.527033
                          3       1   10dz2              0.381125       0.304282

                          4       1    2s                0.433905       0.381027

                          5       1   12fx3              0.524446       0.344573
                          5       1   12fx2y             0.524446       0.770488
                          5       1   12fx2z             0.524446       0.770488
                          5       1   12fxy2             0.524446       0.770488
                          5       1   12fxyz             0.524446       1.334524
                          5       1   12fxz2             0.524446       0.770488
                          5       1   12fy3              0.524446       0.344573
                          5       1   12fy2z             0.524446       0.770488
                          5       1   12fyz2             0.524446       0.770488
                          5       1   12fz3              0.524446       0.344573

                          6       1    8px               0.915857       1.277099
                          6       1    8py               0.915857       1.277099
                          6       1    8pz               0.915857       1.277099

                          7       1   14gx4              1.217666       1.912659
                          7       1   14gx3y             1.217666       5.060419
                          7       1   14gx3z             1.217666       5.060419
                          7       1   14gx2y2            1.217666       6.532973
                          7       1   14gx2yz            1.217666      11.315442
                          7       1   14gx2z2            1.217666       6.532973
                          7       1   14gxy3             1.217666       5.060419
                          7       1   14gxy2z            1.217666      11.315442
                          7       1   14gxyz2            1.217666      11.315442
                          7       1   14gxz3             1.217666       5.060419
                          7       1   14gy4              1.217666       1.912659
                          7       1   14gy3z             1.217666       5.060419
                          7       1   14gy2z2            1.217666       6.532973
                          7       1   14gyz3             1.217666       5.060419
                          7       1   14gz4              1.217666       1.912659

                          8       1   11dx2              1.581488       3.670921
                          8       1   11dxy              1.581488       6.358221
                          8       1   11dxz              1.581488       6.358221
                          8       1   11dy2              1.581488       3.670921
                          8       1   11dyz              1.581488       6.358221
                          8       1   11dz2              1.581488       3.670921

                          9       1    3s                1.620693       1.023730

                         10       1   13fx3              2.677157      13.496481
                         10       1   13fx2y             2.677157      30.179050
                         10       1   13fx2z             2.677157      30.179050
                         10       1   13fxy2             2.677157      30.179050
                         10       1   13fxyz             2.677157      52.271648
                         10       1   13fxz2             2.677157      30.179050
                         10       1   13fy3              2.677157      13.496481
                         10       1   13fy2z             2.677157      30.179050
                         10       1   13fyz2             2.677157      30.179050
                         10       1   13fz3              2.677157      13.496481

                         11       1    4s                5.999661       2.732154

                         12       1    9px               9.284861      23.102519
                         12       1    9py               9.284861      23.102519
                         12       1    9pz               9.284861      23.102519

                         13       1    5s               22.224963       7.295262

                         14       1    6s               82.329769      19.479498

       Atomic covalent radius [Angstrom]:                                  0.770

       Atomic van der Waals radius [Angstrom]:                             1.700

     The atoms of this atomic kind are PAW atoms (GAPW):
       Hard Gaussian function radius:                                      1.512
       Rho0 radius:                                                        1.512
       Maximum GTO radius used for PAW projector construction:            24.566

     GAPW Soft Basis Set                                  aug-SZV-MOLOPT-ae_soft

       Number of orbital shell sets:                                           2
       Number of orbital shells:                                               6
       Number of primitive Cartesian functions:                                6
       Number of Cartesian basis functions:                                   15
       Number of spherical basis functions:                                   14
       Norm type:                                                              2

       Normalised Cartesian orbitals:

                        Set   Shell   Orbital            Exponent    Coefficient

                          1       1    2s                0.070000       0.000000
                                                         0.143687       0.040037
                                                         0.313471       0.177689
                                                         0.721783       0.139661
                                                         1.876046      -0.038599

                          1       2    3s                0.070000      -0.142268
                                                         0.143687       0.288819
                                                         0.313471       0.010360
                                                         0.721783       0.175994
                                                         1.876046       0.000000

                          1       3    3px               0.070000       0.000000
                                                         0.143687       0.012825
                                                         0.313471       0.142381
                                                         0.721783       0.396426
                                                         1.876046       0.544234
                          1       3    3py               0.070000       0.000000
                                                         0.143687       0.012825
                                                         0.313471       0.142381
                                                         0.721783       0.396426
                                                         1.876046       0.544234
                          1       3    3pz               0.070000       0.000000
                                                         0.143687       0.012825
                                                         0.313471       0.142381
                                                         0.721783       0.396426
                                                         1.876046       0.544234

                          1       4    4px               0.070000       0.076505
                                                         0.143687      -0.086104
                                                         0.313471       0.010230
                                                         0.721783       0.129894
                                                         1.876046       0.000000
                          1       4    4py               0.070000       0.076505
                                                         0.143687      -0.086104
                                                         0.313471       0.010230
                                                         0.721783       0.129894
                                                         1.876046       0.000000
                          1       4    4pz               0.070000       0.076505
                                                         0.143687      -0.086104
                                                         0.313471       0.010230
                                                         0.721783       0.129894
                                                         1.876046       0.000000

                          1       5    4dx2              0.070000       0.004316
                                                         0.143687       0.012639
                                                         0.313471       0.125057
                                                         0.721783       0.080411
                                                         1.876046       0.000000
                          1       5    4dxy              0.070000       0.007476
                                                         0.143687       0.021892
                                                         0.313471       0.216606
                                                         0.721783       0.139276
                                                         1.876046       0.000000
                          1       5    4dxz              0.070000       0.007476
                                                         0.143687       0.021892
                                                         0.313471       0.216606
                                                         0.721783       0.139276
                                                         1.876046       0.000000
                          1       5    4dy2              0.070000       0.004316
                                                         0.143687       0.012639
                                                         0.313471       0.125057
                                                         0.721783       0.080411
                                                         1.876046       0.000000
                          1       5    4dyz              0.070000       0.007476
                                                         0.143687       0.021892
                                                         0.313471       0.216606
                                                         0.721783       0.139276
                                                         1.876046       0.000000
                          1       5    4dz2              0.070000       0.004316
                                                         0.143687       0.012639
                                                         0.313471       0.125057
                                                         0.721783       0.080411
                                                         1.876046       0.000000

                          2       1    1s                2.093200       0.161650

     AE Potential information for                                            ALL

       Description:                                       All-electron potential
                                          Krack, Parrinello, PCCP 2, 2105 (2000)

       Gaussian exponent of the core charge distribution:               4.109048
       Electronic configuration (s p d ...):                           4   2   0

  3. Atomic kind: H                                     Number of atoms:       4

     Orbital Basis Set                                         aug-SZV-MOLOPT-ae

       Number of orbital shell sets:                                           1
       Number of orbital shells:                                               4
       Number of primitive Cartesian functions:                                7
       Number of Cartesian basis functions:                                    6
       Number of spherical basis functions:                                    6
       Norm type:                                                              2

       Normalised Cartesian orbitals:

                        Set   Shell   Orbital            Exponent    Coefficient

                          1       1    1s                0.065428       0.000000
                                                         0.100112       0.016532
                                                         0.243077       0.102760
                                                         0.625955       0.185857
                                                         1.822143       0.188385
                                                         6.513144       0.143430
                                                        35.523221       0.095030

                          1       2    2s                0.065428       0.083549
                                                         0.100112       0.009605
                                                         0.243077       0.002524
                                                         0.625955       0.013457
                                                         1.822143       0.000000
                                                         6.513144       0.000000
                                                        35.523221       0.000000

                          1       3    3s                0.065428       0.037407
                                                         0.100112      -0.169070
                                                         0.243077      -0.018899
                                                         0.625955       0.012806
                                                         1.822143       0.000000
                                                         6.513144       0.000000
                                                        35.523221       0.000000

                          1       4    2px               0.065428       0.059908
                                                         0.100112      -0.023770
                                                         0.243077       0.000032
                                                         0.625955       0.017779
                                                         1.822143       0.000000
                                                         6.513144       0.000000
                                                        35.523221       0.000000
                          1       4    2py               0.065428       0.059908
                                                         0.100112      -0.023770
                                                         0.243077       0.000032
                                                         0.625955       0.017779
                                                         1.822143       0.000000
                                                         6.513144       0.000000
                                                        35.523221       0.000000
                          1       4    2pz               0.065428       0.059908
                                                         0.100112      -0.023770
                                                         0.243077       0.000032
                                                         0.625955       0.017779
                                                         1.822143       0.000000
                                                         6.513144       0.000000
                                                        35.523221       0.000000

     RI Auxiliary Basis Set             RI_aug-SZV-MOLOPT-ae_N_RI_035_s_p_d_f_g_

       Number of orbital shell sets:                                          15
       Number of orbital shells:                                              15
       Number of primitive Cartesian functions:                               15
       Number of Cartesian basis functions:                                   37
       Number of spherical basis functions:                                   35
       Norm type:                                                              2

       Normalised Cartesian orbitals:

                        Set   Shell   Orbital            Exponent    Coefficient

                          1       1    1s                0.236911       0.242019

                          2       1    8px               0.347892       0.380843
                          2       1    8py               0.347892       0.380843
                          2       1    8pz               0.347892       0.380843

                          3       1    2s                0.423897       0.374417

                          4       1    9px               0.493166       0.589089
                          4       1    9py               0.493166       0.589089
                          4       1    9pz               0.493166       0.589089

                          5       1   14dx2              0.625366       0.723843
                          5       1   14dxy              0.625366       1.253733
                          5       1   14dxz              0.625366       1.253733
                          5       1   14dy2              0.625366       0.723843
                          5       1   14dyz              0.625366       1.253733
                          5       1   14dz2              0.625366       0.723843

                          6       1   10px               0.699103       0.911206
                          6       1   10py               0.699103       0.911206
                          6       1   10pz               0.699103       0.911206

                          7       1    3s                0.758464       0.579244

                          8       1   11px               0.991036       1.409457
                          8       1   11py               0.991036       1.409457
                          8       1   11pz               0.991036       1.409457

                          9       1   15dx2              1.286053       2.556305
                          9       1   15dxy              1.286053       4.427650
                          9       1   15dxz              1.286053       4.427650
                          9       1   15dy2              1.286053       2.556305
                          9       1   15dyz              1.286053       4.427650
                          9       1   15dz2              1.286053       2.556305

                         10       1    4s                1.357095       0.896123

                         11       1   12px               1.404875       2.180155
                         11       1   12py               1.404875       2.180155
                         11       1   12pz               1.404875       2.180155

                         12       1   13px               1.991527       3.372273
                         12       1   13py               1.991527       3.372273
[...]
 condensed phases.
 https://doi.org/10.1063/1.2770708

 L. Genovese, T. Deutsch, A. Neelov, S. Goedecker, G. Beylkin.
 J. Chem. Phys. 125, 074105 (2006).
 Efficient solution of Poisson's equation with free boundary conditions.
 https://doi.org/10.1063/1.2335442

 M. Iannuzzi, T. Chassaing, T. Wallman, J. Hutter.
 CHIMIA 59, 499-503 (2005).
 Ground and excited state density functional calculations with the Gaussian and 
 augmented-plane-wave method.
 https://doi.org/10.2533/000942905777676164

 M. Frigo, S. G. Johnson.
 Proc. IEEE 93, 216-231 (2005).
 The design and implementation of FFTW3.
 https://doi.org/10.1109/JPROC.2004.840301

 R. L. Martin.
 J. Chem. Phys. 118, 4775-4777 (2003).
 Natural transition orbitals.
 https://doi.org/10.1063/1.1558471

 M. Krack, M. Parrinello.
 Phys. Chem. Chem. Phys. 2, 2105-2112 (2000).
 All-electron ab-initio molecular dynamics.
 https://doi.org/10.1039/b001167n

 G. Lippert, J. Hutter, M. Parrinello.
 Theor. Chem. Acc. 103, 124-140 (1999).
 The Gaussian and augmented-plane-wave density functional method for ab initio 
 molecular dynamics simulations.
 https://doi.org/10.1007/s002140050523

 J. P. Perdew, K. Burke, M. Ernzerhof.
 Phys. Rev. Lett. 77, 3865-3868 (1996).
 Generalized gradient approximation made simple.
 https://doi.org/10.1103/PhysRevLett.77.3865


 -------------------------------------------------------------------------------
 -                                                                             -
 -                                T I M I N G                                  -
 -                                                                             -
 -------------------------------------------------------------------------------
 SUBROUTINE                       CALLS  ASD         SELF TIME        TOTAL TIME
                                MAXIMUM       AVERAGE  MAXIMUM  AVERAGE  MAXIMUM
 CP2K                                 1  1.0    0.014    0.041  361.258  361.261
 qs_energies                          1  2.0    0.000    0.000  360.922  360.924
 qs_energies_properties               1  3.0    0.000    0.000  249.538  249.540
 tddfpt                               1  4.0    0.000    0.000  249.538  249.540
 tddfpt_energies                      1  5.0    0.000    0.000  249.519  249.520
 tddfpt_davidson_solver               1  6.0    0.000    0.001  248.433  248.435
 tddfpt_compute_Aop_evects            9  7.0    0.000    0.000  246.957  246.958
 fhxc_kernel                          9  8.0    0.008    0.010  217.519  217.520
 fft_wrap_pw1pw2                   5168 11.1    0.101    0.123  134.766  142.472
 fft_wrap_pw1pw2_250               3638 12.1    2.888    3.691  127.131  139.632
 fft3d_ps                          5168 13.1   18.080   25.335  123.265  130.022
 scf_env_do_scf                       1  3.0    0.000    0.000  110.757  110.770
 scf_env_do_scf_inner_loop           74  4.0    0.001    0.004  110.757  110.770
 mp_alltoall_z22v                  5168 15.1   99.529  105.822   99.529  105.822
 qs_ks_update_qs_env                 74  5.0    0.000    0.001   80.548   80.562
 rebuild_ks_matrix                   74  6.0    0.000    0.000   80.542   80.555
 qs_ks_build_kohn_sham_matrix        74  7.0    0.011    0.014   80.542   80.555
 qs_rho_update_rho_low              256  7.8    0.003    0.003   74.931   74.940
 calculate_rho_elec                 256  8.8    0.336    0.475   73.639   73.645
 pw_poisson_solve                   254  9.4    1.121    1.459   70.782   73.189
 tddfpt_apply_coulomb               180  9.0    0.003    0.004   69.111   71.561
 yz_to_x                           2038 14.5    1.791    2.030   50.994   56.190
 x_to_yz                           2110 13.7    2.297    3.912   52.479   56.160
 xc_pw_derive                      1527 11.0    0.012    0.014   52.257   54.593
 tddfpt_apply_xc_analytic           180  9.0    0.287    0.432   44.999   46.767
 density_rs2pw                      256  9.8    0.011    0.013   43.519   46.130
 integrate_v_rspace                 254  9.0    0.007    0.009   43.295   45.112
 potential_pw2rs                    254 10.0    0.026    0.034   42.823   43.184
 ps_wavelet_solve                   254 10.4   15.217   21.123   36.825   40.054
 transfer_pw2rs                    1271 10.9    0.024    0.031   38.975   39.944
 integrate_four_center              434  9.8   14.965   32.120   37.371   37.440
 xc_pw_divergence                   254 10.7    0.006    0.007   34.467   35.424
 mp_waitany                       83694 12.8   28.869   33.894   28.869   33.894
 mp_sync                           2302 11.5   18.682   33.568   18.682   33.568
 grid_collocate_task_list           256  9.8   27.370   29.611   27.370   29.611
 tddfpt_apply_hfx                     9  8.0    0.002    0.003   29.114   29.114
 transfer_rs2pw                    1280 10.8    0.041    0.053   26.665   27.701
 tddft_hfx_matrix                   360  9.0    0.003    0.011   27.227   27.281
 mp_sum_d                          4250  7.9   10.358   27.255   10.358   27.255
 xc_calc_2nd_deriv_analytical       900 10.1    1.286    1.575   26.251   26.938
 prepare_gapw_den                   255  8.7    0.004    0.004   23.252   25.334
 transfer_pw2rs_250                 509 11.7    4.388    4.792   22.957   24.528
 mp_alltoall_d54                    254 11.4   10.894   23.561   10.894   23.561
 put_rho0_on_grid                   255  9.7    0.357    0.539   20.397   22.479
 qs_vxc_create                       74  8.0    0.001    0.001   21.124   21.124
 xc_vxc_pw_create                    74  9.0    0.154    0.211   21.123   21.124
 fft_wrap_pw1pw2_90                 510 11.9    0.097    0.186    6.357   17.610
 transfer_rs2pw_250                 512 11.8    4.624    5.085   16.417   17.482
 integrate_vhg0_rspace              254  9.4    0.250    0.299   14.947   15.255
 mp_alltoall_d45                    255 11.4   11.067   13.988   11.067   13.988
 mp_isend_dm3                     10206 12.8    8.439   13.055    8.439   13.055
 transfer_pw2rs_90                  254 12.0    0.719    0.871    8.884   12.103
 mp_alltoall_d11v                 15964 11.6    8.260   11.938    8.260   11.938
 mp_waitall_1                    494472 13.2    9.212   11.934    9.212   11.934
 sum_up_and_integrate                74  8.0    0.001    0.001   11.080   11.493
 xc_rho_set_and_dset_create          75 10.0    0.192    0.262    9.938   11.024
 hfx_ks_matrix                       74  8.0    0.001    0.001   10.150   10.184
 cp2k_distribution_to_z_slices      254 10.4    1.039    1.240    7.232    8.059
 transfer_pw2rs_30                  254 12.0    1.109    1.271    6.128    7.979
 Vh_1c_gg_integrals                 254  9.4    0.031    0.449    2.294    7.512
 gspace_mixing                       73  5.0    0.095    0.135    6.808    6.809
 pw_integral_ab_c1d_c1d_gs          254 10.4    0.686    0.813    2.726    6.289
 transfer_rs2pw_90                  256 11.8    0.924    1.045    5.468    5.820
 mp_sum_dm                         7767 10.0    3.882    4.880    3.882    4.880
 rs_grid_zero                      1273 11.9    4.210    4.508    4.210    4.508
 pw_derive                         2289 11.8    3.817    4.186    3.817    4.186
 transfer_rs2pw_30                  256 11.8    1.418    1.689    3.573    3.882
 pw_copy                           3455 11.0    3.212    3.724    3.212    3.724
 gaVxcgb_GC                         508  9.7    0.078    3.534    0.078    3.534
 pw_gather_p                       2550 13.3    2.734    3.443    2.734    3.443
 mp_sendrecv_dv                   97792 12.8    2.896    3.309    2.896    3.309
 mp_max_i                           757  5.0    1.345    3.219    1.345    3.219
 pw_scatter_p                      2618 12.8    2.768    3.108    2.768    3.108
 broyden_mixing                      73  6.0    2.977    3.005    3.068    3.082
 calculate_xc_2nd_deriv_atom        180  9.0    0.065    0.419    0.161    3.039
 pw_copy_to_array                  2550 13.3    1.861    2.698    1.861    2.698
 calculate_rho_atom                1020  9.7    1.197    2.612    1.197    2.612
 cp_dbcsr_sm_fm_multiply           1126  8.6    0.013    0.017    2.521    2.593
 pw_poisson_set                     255 10.4    0.005    0.006    2.330    2.400
 update_ks_atom                     254  8.7    0.045    0.097    1.820    2.217
 mp_bcast_dm                       5080  9.7    1.776    2.182    1.776    2.182
 integrate_four_center_main         434 10.8    0.068    0.335    0.516    2.073
 integrate_four_center_bin        35980 11.8    0.448    2.024    0.448    2.024
 grid_integrate_task_list           254 10.0    0.135    1.974    0.135    1.974
 rs_gather_matrices                 254 10.0    0.003    0.010    0.329    1.900
 xc_functional_eval                1091 10.9    0.001    0.003    0.955    1.817
 pbe_lda_eval                      1091 11.9    0.954    1.814    0.954    1.814
 mp_sum_dv                        20467  8.9    1.634    1.777    1.634    1.777
 dbcsr_multiply_generic            1560 10.3    0.037    0.053    1.734    1.758
 parallel_gemm_fm                  1655  8.3    0.001    0.001    1.678    1.744
 parallel_gemm_fm_cosma            1655  9.3    1.677    1.742    1.677    1.742
 pw_axpy                           2728 10.8    1.430    1.714    1.430    1.714
 pw_zero                           2790 10.6    1.368    1.614    1.368    1.614
 calc_screening_functions             1 10.0    0.561    0.769    1.307    1.577
 dbcsr_complete_redistribute       3759 10.5    0.086    0.132    1.381    1.558
 powell_optimize                 962446 11.0    1.378    1.474    1.378    1.474
 pw_copy_from_array                2618 12.8    1.035    1.390    1.035    1.390
 transfer_rs2pw_10                  256 11.8    0.426    0.550    1.167    1.329
 calculate_rho_atom_coeff           256  8.8    0.079    0.162    1.289    1.294
 cp_dbcsr_sm_fm_multiply_core      1126  9.6    0.002    0.002    1.197    1.218
 fft_wrap_pw1pw2_30                 510 11.9    0.013    0.017    0.835    1.163
 calculate_vxc_atom                  74  8.0    0.035    0.100    1.151    1.151
 calc_pair_dist_radii                 1 10.0    0.412    0.433    1.044    1.115
 copy_fm_to_dbcsr                  2535  9.6    0.006    0.008    0.880    1.049
 transfer_pw2rs_10                  254 12.0    0.294    0.340    0.981    1.034
 mp_alltoall_z11v                  1020 14.9    0.705    0.977    0.705    0.977
 mp_alltoall_i22                   4982 11.4    0.839    0.935    0.839    0.935
 mp_irecv_dm3                     10206 12.8    0.275    0.817    0.275    0.817
 mp_rank_compare                   5168 14.1    0.738    0.791    0.738    0.791
 copy_dbcsr_to_fm                  1222  9.3    0.009    0.009    0.740    0.784
 qs_scf_new_mos                      74  5.0    0.001    0.001    0.749    0.758
 pw_poisson_rebuild                 254 10.4    0.000    0.000    0.730    0.755
 ps_wavelet_create                    1 10.0    0.000    0.000    0.730    0.755
 RS_z_slice_distribution              1 11.0    0.192    0.218    0.730    0.755
 prepare_dr1dr                      900 11.1    0.551    0.752    0.551    0.752
 mp_sum_l                          5980 10.6    0.689    0.745    0.689    0.745
 cp_dbcsr_plus_fm_fm_t              254  8.4    0.002    0.002    0.724    0.741
 multiply_cannon                   1560 11.3    0.103    0.110    0.679    0.715
 offload_free_buffer                262 10.2    0.518    0.657    0.518    0.657
 mp_isendrecv_dv                 262816 12.3    0.236    0.656    0.236    0.656
 tddfpt_orthonormalize_psi1_psi      10  6.9    0.010    0.011    0.635    0.636
 make_m2s                          3120 11.3    0.027    0.030    0.523    0.549
 yz_to_xz                           508 14.0    0.035    0.045    0.362    0.545
 xz_to_yz                           512 13.8    0.027    0.048    0.406    0.509
 eigensolver_symm                    74  6.0    0.006    0.007    0.500    0.503
 tddfpt_compute_residual_vects        8  7.0    0.000    0.000    0.494    0.494
 mp_isend_dv                     147242 13.5    0.170    0.491    0.170    0.491
 multiply_cannon_loop              1560 12.3    0.097    0.099    0.453    0.488
 make_images                       3120 12.3    0.083    0.086    0.458    0.483
 integrate_four_center_getP         434 10.8    0.063    0.076    0.435    0.459
 fft_wrap_pw1pw2_10                 510 11.9    0.004    0.005    0.343    0.456
 tddfpt_construct_ground_state_       1  6.0    0.000    0.000    0.413    0.427
 cp_fm_diag_elpa                    125  7.2    0.000    0.000    0.406    0.414
 tddfpt_print_nto_analysis            1  6.0    0.002    0.002    0.399    0.399
 cp_fm_diag_elpa_base               125  8.2    0.383    0.389    0.393    0.395
 init_scf_run                         1  3.0    0.000    0.000    0.385    0.385
 scf_env_initial_rho_setup            1  4.0    0.000    0.000    0.379    0.380
 calculate_rho0_atom               1020  9.7    0.352    0.370    0.352    0.370
 integrate_four_center_dist_KS      434 10.8    0.062    0.071    0.359    0.364
 cp_fm_trace_a1b1t1_aa            16500  8.0    0.028    0.031    0.320    0.327
 tddfpt_apply_energy_diff             9  8.0    0.000    0.000    0.325    0.325
 integrate_four_center_load         434 10.8    0.000    0.001    0.280    0.323
 hfx_load_balance                     1 11.0    0.000    0.000    0.280    0.323
 hfx_load_balance_range               1 12.0    0.000    0.000    0.270    0.313
 make_images_sizes                 3120 13.3    0.002    0.002    0.269    0.292
 mp_alltoall_i44                   3120 14.3    0.267    0.290    0.267    0.290
 scale_and_distribute               508 11.4    0.185    0.283    0.185    0.283
 xc_2nd_deriv_of_r                  720 10.0    0.001    0.032    0.007    0.247
 tddfpt_orthogonalize_psi1_psi0      10  6.9    0.000    0.000    0.224    0.245
 cube_transpose_2                   512 13.8    0.009    0.011    0.092    0.202
 mp_cart_sub                       2448 11.3    0.192    0.196    0.192    0.196
 calculate_dm_sparse                 74  6.0    0.000    0.000    0.182    0.193
 dbcsr_desymmetrize_deep           1223 10.3    0.017    0.021    0.151    0.177
 mp_alltoall_i11v                 12500 11.5    0.067    0.172    0.067    0.172
 cp_fm_geeig                         20  7.0    0.001    0.001    0.169    0.170
 multiply_cannon_metrocomm3       37440 13.3    0.052    0.054    0.123    0.168
 create_kernel_env                    1  6.0    0.000    0.000    0.150    0.168
 xc_prep_2nd_deriv                    1  7.0    0.000    0.000    0.150    0.168
 mp_cart_create                    2243 10.6    0.151    0.163    0.153    0.166
 create_qs_kind_set                   1  2.0    0.000    0.000    0.159    0.159
 read_qs_kind                         4  3.0    0.066    0.084    0.159    0.159
 pw_scale                           656  9.5    0.108    0.157    0.108    0.157
 qs_energies_init_hamiltonians        1  3.0    0.000    0.000    0.156    0.156
 tddfpt_is_nonorthogonal_psi1_p       8  7.0    0.000    0.000    0.153    0.153
 build_core_hamiltonian_matrix        1  4.0    0.000    0.000    0.152    0.152
 overlap_condnum                      1  5.0    0.000    0.000    0.151    0.152
 rs_grid_create                     260 10.3    0.001    0.002    0.017    0.147
 offload_create_buffer              262 11.3    0.016    0.145    0.016    0.145
 dbcsr_finalize                    8924 11.4    0.019    0.025    0.110    0.143
 mp_irecv_dv                     145940 13.5    0.083    0.142    0.083    0.142
 arnoldi_conjugate_gradient           5  6.0    0.003    0.004    0.136    0.136
 cube_transpose_1                   508 14.0    0.008    0.016    0.070    0.127
 write_mo_set_to_restart             74  5.0    0.001    0.063    0.057    0.127
 multiply_cannon_metrocomm4       35880 13.3    0.053    0.060    0.091    0.117
 qs_init_subsys                       1  2.0    0.001    0.002    0.113    0.113
 qs_env_setup                         1  3.0    0.000    0.000    0.109    0.109
 qs_env_rebuild_pw_env                2  3.5    0.000    0.000    0.108    0.108
 pw_env_rebuild                       1  5.0    0.000    0.000    0.108    0.108
 dbcsr_merge_all                   7360 12.4    0.048    0.079    0.071    0.103
 multiply_cannon_metrocomm2       32760 13.3    0.048    0.056    0.079    0.103
 parser_read_line                 27329  4.0    0.004    0.005    0.093    0.094
 parser_read_line_low                41  5.0    0.003    0.024    0.089    0.090
 dbcsr_create_new                 33192 11.6    0.060    0.065    0.081    0.088
 mp_allgather_i34                  1560 12.3    0.078    0.087    0.078    0.087
 broadcast_input_information         41  6.0    0.012    0.013    0.086    0.087
 scf_post_calculation_gpw             1  3.0    0.000    0.000    0.086    0.086
 write_available_results              1  4.0    0.000    0.000    0.085    0.086
 write_mo_free_results                1  5.0    0.002    0.003    0.085    0.086
 pw_grid_setup                        4  6.0    0.000    0.000    0.085    0.085
 pw_grid_setup_internal               4  7.0    0.001    0.002    0.085    0.085
 dbcsr_sym_matrix_vector_mult      1125  7.0    0.008    0.008    0.069    0.085
 rs_scatter_matrices                256  9.8    0.002    0.004    0.006    0.077
 vxc_of_r_new                       296  9.0    0.000    0.006    0.002    0.074
 cp_fm_write_unformatted             24  7.0    0.072    0.072    0.072    0.072
 multiply_cannon_metrocomm1       37440 13.3    0.020    0.021    0.040    0.070
 make_images_data                  3120 13.3    0.018    0.024    0.042    0.065
 write_mo_set_low                     4  6.0    0.000    0.000    0.056    0.064
 mp_bcast_i_src                     164  7.0    0.049    0.062    0.049    0.062
 mp_bcast_b_src                     199  8.0    0.056    0.061    0.056    0.061
 external_control                    74  5.0    0.000    0.053    0.055    0.055
 pw_grid_sort                         4  8.0    0.035    0.035    0.048    0.051
 copy_fm_to_dbcsr_bc               2535 10.6    0.013    0.015    0.044    0.051
 multiply_cannon_multrec          37440 13.3    0.019    0.047    0.023    0.051
 tddfpt_compute_ritz_vects            9  7.0    0.004    0.004    0.049    0.050
 cp_fm_triangular_invert             20  8.0    0.042    0.043    0.042    0.043
 cp_fm_cholesky_decompose            20  8.0    0.041    0.043    0.041    0.043
 dbcsr_add_d                       1744  7.1    0.001    0.001    0.007    0.040
 dbcsr_iterator_start             39435 11.1    0.026    0.030    0.033    0.040
 dbcsr_add_anytype                 1744  8.1    0.001    0.005    0.006    0.039
 dbcsr_make_untransposed_blocks    2534 11.4    0.007    0.034    0.012    0.039
 hybrid_alltoall_any               4343 13.5    0.018    0.022    0.027    0.039
 cp_fm_symm                          74  7.0    0.034    0.037    0.034    0.037
 mp_cart_rank                    195488 10.9    0.032    0.037    0.032    0.037
 -------------------------------------------------------------------------------

 The number of warnings for this run is : 1
 
 -------------------------------------------------------------------------------
  **** **** ******  **  PROGRAM ENDED AT                 2025-03-22 17:21:30.058
 ***** ** ***  *** **   PROGRAM RAN ON                     n2cn0349.ab2021.local
 **    ****   ******    PROGRAM RAN BY                                  metdyn02
 ***** **    ** ** **   PROGRAM PROCESS ID                                520299
  **** **  *******  **  PROGRAM STOPPED IN /scratch/hpc-prf-metdyn/metdyn02_Remi
                                           /10_MOL/05_MOL/aUKBqsEOTmq69kFe5R_nOg
                                           /5k_set_final_qzvp/DCACON/SZV/TDDFT/R
                                           ILIM
