 DBCSR| CPU Multiplication driver                                           BLAS (U)
 DBCSR| Multrec recursion limit                                              512 (U)
 DBCSR| Multiplication stack size                                           1000 (D)
 DBCSR| Maximum elements for images                                    UNLIMITED (U)
 DBCSR| Multiplicative factor virtual images                                   1 (U)
 DBCSR| Use multiplication densification                                       T (D)
 DBCSR| Multiplication size stacks                                             3 (U)
 DBCSR| Use memory pool for CPU allocation                                     F (U)
 DBCSR| Number of 3D layers                                               SINGLE (U)
 DBCSR| Use MPI memory allocation                                              F (U)
 DBCSR| Use RMA algorithm                                                      F (U)
 DBCSR| Use Communication thread                                               T (U)
 DBCSR| Communication thread load                                             45 (D)
 DBCSR| MPI: My process id                                                     0
 DBCSR| MPI: Number of processes                                             512
 DBCSR| OMP: Current number of threads                                        12
 DBCSR| OMP: Max number of threads                                            12
 DBCSR| Split modifier for TAS multiplication algorithm                  1.0E+00 (U)


  **** **** ******  **  PROGRAM STARTED AT               2025-05-01 00:00:55.904
 ***** ** ***  *** **   PROGRAM STARTED ON                          i01r08c04s12
 **    ****   ******    PROGRAM STARTED BY                               di38fab
 ***** **    ** ** **   PROGRAM PROCESS ID                               1873485
  **** **  *******  **  PROGRAM STARTED IN /hppfs/scratch/04/di38fab/07_MOL_non_
                                           aug/05_MOL_non_aug/05_MOL/aUKBqsEOTmq
                                           69kFe5R_nOg/5k_set_final_qzvp/JEVVIQ/
                                           QZVPP/GW+BSE

 CP2K| version string:                 CP2K version 2025.1 (Development Version)
 CP2K| source code revision number:                             unknown revision
 CP2K| cp2kflags: omp libint fftw3 libxc parallel scalapack max_contr=4         
 CP2K| is freely available from                            https://www.cp2k.org/
 CP2K| Program compiled at                         Thu Apr 10 16:20:23 CEST 2025
 CP2K| Program compiled on                                               login01
 CP2K| Program compiled for                                        Supermuc-foss
 CP2K| Data directory path                  /hppfs/work/pn36zo/di38fab/cp2k/data
 CP2K| Input file name                                                    GW.inp

 GLOBAL| Force Environment number                                              1
 GLOBAL| Basis set file name            /hppfs/scratch/04/di38fab/04_TMD/BASIS_A
 GLOBAL| Potential file name            /hppfs/work/pn36zo/di38fab/cp2k/data/ALL
 GLOBAL| MM Potential file name                                     MM_POTENTIAL
 GLOBAL| Coordinate file name                                      __STD_INPUT__
 GLOBAL| Method name                                                        CP2K
 GLOBAL| Project name                                                       MoS2
 GLOBAL| Run type                                                         ENERGY
 GLOBAL| FFT library                                                       FFTW3
 GLOBAL| Diagonalization library                                       ScaLAPACK
 GLOBAL| DGEMM library                                                      BLAS
 GLOBAL| Orthonormality check for eigenvectors                          DISABLED
 GLOBAL| Matrix multiplication library                                 ScaLAPACK
 GLOBAL| All-to-all communication in single precision                          F
 GLOBAL| FFTs using library dependent lengths                                  F
 GLOBAL| Grid backend                                                       AUTO
 GLOBAL| Global print level                                               MEDIUM
 GLOBAL| MPI I/O enabled                                                       T
 GLOBAL| Total number of message passing processes                           512
 GLOBAL| Number of threads for this process                                   12
 GLOBAL| This output is from process                                           0
 GLOBAL| OpenMP stack size per thread (OMP_STACKSIZE)                    default
 GLOBAL| CPU model name             Intel(R) Xeon(R) Platinum 8174 CPU @ 3.10GHz

 MEMORY| system memory details [Kb]
 MEMORY|                        rank 0           min           max       average
 MEMORY| MemTotal             98436664      98429680      98436868      98436616
 MEMORY| MemFree              84674044      84348164      86831804      84945345
 MEMORY| Buffers                     0             0             0             0
 MEMORY| Cached                2572304       2268100       2593448       2386930
 MEMORY| Slab                  1246836        980604       1285528       1241114
 MEMORY| SReclaimable           272436        218296        290684        276577
 MEMORY| MemLikelyFree        87518784      87026520      89318200      87608854


 *** Fundamental physical constants (SI units) ***

 *** Literature: B. J. Mohr and B. N. Taylor,
 ***             CODATA recommended values of the fundamental physical
 ***             constants: 2006, Web Version 5.1
 ***             http://physics.nist.gov/constants

 Speed of light in vacuum [m/s]                             2.99792458000000E+08
 Magnetic constant or permeability of vacuum [N/A**2]       1.25663706143592E-06
 Electric constant or permittivity of vacuum [F/m]          8.85418781762039E-12
 Planck constant (h) [J*s]                                  6.62606896000000E-34
 Planck constant (h-bar) [J*s]                              1.05457162825177E-34
 Elementary charge [C]                                      1.60217648700000E-19
 Electron mass [kg]                                         9.10938215000000E-31
 Electron g factor [ ]                                     -2.00231930436220E+00
 Proton mass [kg]                                           1.67262163700000E-27
 Fine-structure constant                                    7.29735253760000E-03
 Rydberg constant [1/m]                                     1.09737315685270E+07
 Avogadro constant [1/mol]                                  6.02214179000000E+23
 Boltzmann constant [J/K]                                   1.38065040000000E-23
 Atomic mass unit [kg]                                      1.66053878200000E-27
 Bohr radius [m]                                            5.29177208590000E-11

 *** Conversion factors ***

 [u] -> [a.u.]                                              1.82288848426455E+03
 [Angstrom] -> [Bohr] = [a.u.]                              1.88972613288564E+00
 [a.u.] = [Bohr] -> [Angstrom]                              5.29177208590000E-01
 [a.u.] -> [s]                                              2.41888432650478E-17
 [a.u.] -> [fs]                                             2.41888432650478E-02
 [a.u.] -> [J]                                              4.35974393937059E-18
 [a.u.] -> [N]                                              8.23872205491840E-08
 [a.u.] -> [K]                                              3.15774647902944E+05
 [a.u.] -> [kJ/mol]                                         2.62549961709828E+03
 [a.u.] -> [kcal/mol]                                       6.27509468713739E+02
 [a.u.] -> [Pa]                                             2.94210107994716E+13
 [a.u.] -> [bar]                                            2.94210107994716E+08
 [a.u.] -> [atm]                                            2.90362800883016E+08
 [a.u.] -> [eV]                                             2.72113838565563E+01
 [a.u.] -> [Hz]                                             6.57968392072181E+15
 [a.u.] -> [1/cm] (wave numbers)                            2.19474631370540E+05
 [a.u./Bohr**2] -> [1/cm]                                   5.14048714338585E+03
 

 CELL_TOP| Volume [angstrom^3]:                                     27000.000000
 CELL_TOP| Vector a [angstrom    30.000     0.000     0.000   |a| =    30.000000
 CELL_TOP| Vector b [angstrom     0.000    30.000     0.000   |b| =    30.000000
 CELL_TOP| Vector c [angstrom     0.000     0.000    30.000   |c| =    30.000000
 CELL_TOP| Angle (b,c), alpha [degree]:                                90.000000
 CELL_TOP| Angle (a,c), beta  [degree]:                                90.000000
 CELL_TOP| Angle (a,b), gamma [degree]:                                90.000000
 CELL_TOP| Numerically orthorhombic:                                         YES
 CELL_TOP| Periodicity                                                      NONE

 GENERATE|  Preliminary Number of Bonds generated:                             0
 GENERATE|  Achieved consistency in connectivity generation.

 CELL| Volume [angstrom^3]:                                         27000.000000
 CELL| Vector a [angstrom]:      30.000     0.000     0.000   |a| =    30.000000
 CELL| Vector b [angstrom]:       0.000    30.000     0.000   |b| =    30.000000
 CELL| Vector c [angstrom]:       0.000     0.000    30.000   |c| =    30.000000
 CELL| Angle (b,c), alpha [degree]:                                    90.000000
 CELL| Angle (a,c), beta  [degree]:                                    90.000000
 CELL| Angle (a,b), gamma [degree]:                                    90.000000
 CELL| Numerically orthorhombic:                                             YES
 CELL| Periodicity                                                          NONE

 CELL_REF| Volume [angstrom^3]:                                     27000.000000
 CELL_REF| Vector a [angstrom    30.000     0.000     0.000   |a| =    30.000000
 CELL_REF| Vector b [angstrom     0.000    30.000     0.000   |b| =    30.000000
 CELL_REF| Vector c [angstrom     0.000     0.000    30.000   |c| =    30.000000
 CELL_REF| Angle (b,c), alpha [degree]:                                90.000000
 CELL_REF| Angle (a,c), beta  [degree]:                                90.000000
 CELL_REF| Angle (a,b), gamma [degree]:                                90.000000
 CELL_REF| Numerically orthorhombic:                                         YES
 CELL_REF| Periodicity                                                      NONE

 *******************************************************************************
 *******************************************************************************
 **                                                                           **
 **     #####                         ##              ##                      **
 **    ##   ##            ##          ##              ##                      **
 **   ##     ##                       ##            ######                    **
 **   ##     ##  ##   ##  ##   #####  ##  ##   ####   ##    #####    #####    **
 **   ##     ##  ##   ##  ##  ##      ## ##   ##      ##   ##   ##  ##   ##   **
 **   ##  ## ##  ##   ##  ##  ##      ####     ###    ##   ######   ######    **
 **    ##  ###   ##   ##  ##  ##      ## ##      ##   ##   ##       ##        **
 **     #######   #####   ##   #####  ##  ##  ####    ##    #####   ##        **
 **           ##                                                    ##        **
 **                                                                           **
 **                                                ... make the atoms dance   **
 **                                                                           **
 **            Copyright (C) by CP2K developers group (2000-2025)             **
 **                      J. Chem. Phys. 152, 194103 (2020)                    **
 **                                                                           **
 *******************************************************************************

 DFT| Spin restricted Kohn-Sham (RKS) calculation                            RKS
 DFT| Multiplicity                                                             1
 DFT| Number of spin states                                                    1
 DFT| Charge                                                                   0
 DFT| Self-interaction correction (SIC)                                       NO
 DFT| Cutoffs: density                                              1.000000E-10
 DFT|          gradient                                             1.000000E-10
 DFT|          tau                                                  1.000000E-10
 DFT|          cutoff_smoothing_range                               0.000000E+00
 DFT| XC density smoothing                                                  NONE
 DFT| XC derivatives                                                          PW

 FUNCTIONAL| PBE:
 FUNCTIONAL| J.P.Perdew, K.Burke, M.Ernzerhof, Phys. Rev. Letter, vol. 77, n 18,
 FUNCTIONAL|  pp. 3865-3868, (1996)sx=0.750sc=1.000{spin unpolarized}           


 QS| Method:                                                                GAPW
 QS| Density plane wave grid type                        NON-SPHERICAL FULLSPACE
 QS| Number of grid levels:                                                    4
 QS| Density cutoff [a.u.]:                                                250.0
 QS| Multi grid cutoff [a.u.]: 1) grid level                               250.0
 QS|                           2) grid level                                83.3
 QS|                           3) grid level                                27.8
 QS|                           4) grid level                                 9.3
 QS| Grid level progression factor:                                          3.0
 QS| Relative density cutoff [a.u.]:                                        50.0
 QS| Interaction thresholds: eps_pgf_orb:                                1.0E-12
 QS|                         eps_filter_matrix:                          0.0E+00
 QS|                         eps_core_charge:                            1.0E-14
 QS|                         eps_rho_gspace:                             1.0E-12
 QS|                         eps_rho_rspace:                             1.0E-12
 QS|                         eps_gvg_rspace:                             1.0E-06
 QS|                         eps_ppl:                                    1.0E-02
 QS|                         eps_ppnl:                                   1.0E-08
 QS| GAPW|      One center basis from orbital basis primitives
 QS| GAPW|                   eps_fit:                                    1.0E-04
 QS| GAPW|                   eps_iso:                                    1.0E-12
 QS| GAPW|                   eps_svd:                                    1.0E-08
 QS| GAPW|                   eps_cpc:                                    1.0E-12
 QS| GAPW|   atom-r-grid: quadrature:                                     GC_LOG
 QS| GAPW|      atom-s-grid:  max l :                                          8
 QS| GAPW|      max_l_rho0 :                                                   2


 ATOMIC KIND INFORMATION

  1. Atomic kind: Cl                                    Number of atoms:       1

     Orbital Basis Set                                       QZVPP-MOLOPT-GGA-ae

       Number of orbital shell sets:                                           3
       Number of orbital shells:                                              22
       Number of primitive Cartesian functions:                               24
       Number of Cartesian basis functions:                                   86
       Number of spherical basis functions:                                   70
       Norm type:                                                              2

       Normalised Cartesian orbitals:

                        Set   Shell   Orbital            Exponent    Coefficient

                          1       1    1s                9.783380       6.684104
                                                         4.332694      -1.749000
                                                         1.896187      -0.237846
                                                         0.759377      -0.095349
                                                         0.292577       0.017325
                                                         0.106054       0.002943

                          1       2    2s                9.783380       1.000583
                                                         4.332694       1.010417
                                                         1.896187       0.267782
                                                         0.759377       0.020038
                                                         0.292577       0.041718
                                                         0.106054       0.001290

                          1       3    3s                9.783380      -1.899543
                                                         4.332694      -3.268321
                                                         1.896187       4.335925
                                                         0.759377      -1.167200
                                                         0.292577       0.071939
                                                         0.106054      -0.000197

                          1       4    4s                9.783380      -0.023168
                                                         4.332694      -0.537427
                                                         1.896187       0.373258
                                                         0.759377       0.471300
                                                         0.292577       0.033461
                                                         0.106054      -0.010773

                          1       5    5s                9.783380      -0.681537
                                                         4.332694      -0.363116
                                                         1.896187      -0.297252
                                                         0.759377      -0.086739
                                                         0.292577       0.366568
                                                         0.106054      -0.014775

                          1       6    6s                9.783380      -0.102406
                                                         4.332694      -0.082590
                                                         1.896187       0.011233
                                                         0.759377       0.036507
                                                         0.292577       0.022295
                                                         0.106054       0.119640

                          1       7    2px               9.783380      -0.375294
                                                         4.332694       0.644060
                                                         1.896187       3.110576
                                                         0.759377      -0.071663
                                                         0.292577       0.020948
                                                         0.106054      -0.002939
                          1       7    2py               9.783380      -0.375294
                                                         4.332694       0.644060
                                                         1.896187       3.110576
                                                         0.759377      -0.071663
                                                         0.292577       0.020948
                                                         0.106054      -0.002939
                          1       7    2pz               9.783380      -0.375294
                                                         4.332694       0.644060
                                                         1.896187       3.110576
                                                         0.759377      -0.071663
                                                         0.292577       0.020948
                                                         0.106054      -0.002939

                          1       8    3px               9.783380       2.643695
                                                         4.332694      -1.526142
                                                         1.896187       0.273937
                                                         0.759377       0.994783
                                                         0.292577      -0.001907
                                                         0.106054       0.001128
                          1       8    3py               9.783380       2.643695
                                                         4.332694      -1.526142
                                                         1.896187       0.273937
                                                         0.759377       0.994783
                                                         0.292577      -0.001907
                                                         0.106054       0.001128
                          1       8    3pz               9.783380       2.643695
                                                         4.332694      -1.526142
                                                         1.896187       0.273937
                                                         0.759377       0.994783
                                                         0.292577      -0.001907
                                                         0.106054       0.001128

                          1       9    4px               9.783380      -3.156443
                                                         4.332694       0.090971
                                                         1.896187      -0.256206
                                                         0.759377       0.031676
                                                         0.292577       0.334529
                                                         0.106054      -0.010816
                          1       9    4py               9.783380      -3.156443
                                                         4.332694       0.090971
                                                         1.896187      -0.256206
                                                         0.759377       0.031676
                                                         0.292577       0.334529
                                                         0.106054      -0.010816
                          1       9    4pz               9.783380      -3.156443
                                                         4.332694       0.090971
                                                         1.896187      -0.256206
                                                         0.759377       0.031676
                                                         0.292577       0.334529
                                                         0.106054      -0.010816

                          1      10    5px               9.783380      -0.510669
                                                         4.332694       0.303757
                                                         1.896187       0.067785
                                                         0.759377      -0.005259
                                                         0.292577       0.032020
                                                         0.106054       0.079108
                          1      10    5py               9.783380      -0.510669
                                                         4.332694       0.303757
                                                         1.896187       0.067785
                                                         0.759377      -0.005259
                                                         0.292577       0.032020
                                                         0.106054       0.079108
                          1      10    5pz               9.783380      -0.510669
                                                         4.332694       0.303757
                                                         1.896187       0.067785
                                                         0.759377      -0.005259
                                                         0.292577       0.032020
                                                         0.106054       0.079108

                          1      11    3dx2              9.783380       2.709543
                                                         4.332694      18.885118
                                                         1.896187       0.357003
                                                         0.759377       0.120463
                                                         0.292577      -0.005802
                                                         0.106054      -0.001829
                          1      11    3dxy              9.783380       4.693066
                                                         4.332694      32.709983
                                                         1.896187       0.618347
                                                         0.759377       0.208649
                                                         0.292577      -0.010049
                                                         0.106054      -0.003167
                          1      11    3dxz              9.783380       4.693066
                                                         4.332694      32.709983
                                                         1.896187       0.618347
                                                         0.759377       0.208649
                                                         0.292577      -0.010049
                                                         0.106054      -0.003167
                          1      11    3dy2              9.783380       2.709543
                                                         4.332694      18.885118
                                                         1.896187       0.357003
                                                         0.759377       0.120463
                                                         0.292577      -0.005802
                                                         0.106054      -0.001829
                          1      11    3dyz              9.783380       4.693066
                                                         4.332694      32.709983
                                                         1.896187       0.618347
                                                         0.759377       0.208649
                                                         0.292577      -0.010049
                                                         0.106054      -0.003167
                          1      11    3dz2              9.783380       2.709543
                                                         4.332694      18.885118
                                                         1.896187       0.357003
                                                         0.759377       0.120463
                                                         0.292577      -0.005802
                                                         0.106054      -0.001829

                          1      12    4dx2              9.783380       7.490013
                                                         4.332694      -2.439071
                                                         1.896187       3.053775
                                                         0.759377       0.529356
                                                         0.292577      -0.009260
                                                         0.106054       0.004685
                          1      12    4dxy              9.783380      12.973083
                                                         4.332694      -4.224595
                                                         1.896187       5.289294
                                                         0.759377       0.916872
                                                         0.292577      -0.016038
                                                         0.106054       0.008114
                          1      12    4dxz              9.783380      12.973083
                                                         4.332694      -4.224595
                                                         1.896187       5.289294
                                                         0.759377       0.916872
                                                         0.292577      -0.016038
                                                         0.106054       0.008114
                          1      12    4dy2              9.783380       7.490013
                                                         4.332694      -2.439071
                                                         1.896187       3.053775
                                                         0.759377       0.529356
                                                         0.292577      -0.009260
                                                         0.106054       0.004685
                          1      12    4dyz              9.783380      12.973083
                                                         4.332694      -4.224595
                                                         1.896187       5.289294
                                                         0.759377       0.916872
                                                         0.292577      -0.016038
                                                         0.106054       0.008114
                          1      12    4dz2              9.783380       7.490013
                                                         4.332694      -2.439071
                                                         1.896187       3.053775
                                                         0.759377       0.529356
                                                         0.292577      -0.009260
                                                         0.106054       0.004685

                          1      13    5dx2              9.783380       6.051650
                                                         4.332694      -1.824211
                                                         1.896187      -6.003697
                                                         0.759377       1.361934
                                                         0.292577      -0.006842
                                                         0.106054       0.001419
                          1      13    5dxy              9.783380      10.481765
                                                         4.332694      -3.159627
                                                         1.896187     -10.398708
                                                         0.759377       2.358938
                                                         0.292577      -0.011851
                                                         0.106054       0.002458
                          1      13    5dxz              9.783380      10.481765
                                                         4.332694      -3.159627
                                                         1.896187     -10.398708
                                                         0.759377       2.358938
                                                         0.292577      -0.011851
                                                         0.106054       0.002458
                          1      13    5dy2              9.783380       6.051650
                                                         4.332694      -1.824211
                                                         1.896187      -6.003697
                                                         0.759377       1.361934
                                                         0.292577      -0.006842
                                                         0.106054       0.001419
                          1      13    5dyz              9.783380      10.481765
                                                         4.332694      -3.159627
                                                         1.896187     -10.398708
                                                         0.759377       2.358938
                                                         0.292577      -0.011851
                                                         0.106054       0.002458
                          1      13    5dz2              9.783380       6.051650
                                                         4.332694      -1.824211
                                                         1.896187      -6.003697
                                                         0.759377       1.361934
                                                         0.292577      -0.006842
                                                         0.106054       0.001419

                          1      14    6dx2              9.783380      -3.909283
                                                         4.332694       0.386626
                                                         1.896187       0.216845
                                                         0.759377       0.070916
                                                         0.292577       0.187035
                                                         0.106054      -0.002115
                          1      14    6dxy              9.783380      -6.771077
                                                         4.332694       0.669656
                                                         1.896187       0.375586
                                                         0.759377       0.122831
                                                         0.292577       0.323954
                                                         0.106054      -0.003663
                          1      14    6dxz              9.783380      -6.771077
                                                         4.332694       0.669656
                                                         1.896187       0.375586
                                                         0.759377       0.122831
                                                         0.292577       0.323954
                                                         0.106054      -0.003663
                          1      14    6dy2              9.783380      -3.909283
                                                         4.332694       0.386626
                                                         1.896187       0.216845
                                                         0.759377       0.070916
                                                         0.292577       0.187035
                                                         0.106054      -0.002115
                          1      14    6dyz              9.783380      -6.771077
                                                         4.332694       0.669656
                                                         1.896187       0.375586
                                                         0.759377       0.122831
                                                         0.292577       0.323954
                                                         0.106054      -0.003663
                          1      14    6dz2              9.783380      -3.909283
                                                         4.332694       0.386626
                                                         1.896187       0.216845
                                                         0.759377       0.070916
                                                         0.292577       0.187035
                                                         0.106054      -0.002115

                          1      15    4fx3              9.783380     -12.752747
                                                         4.332694       1.505749
                                                         1.896187       3.220350
                                                         0.759377       0.482057
                                                         0.292577      -0.006131
                                                         0.106054      -0.000316
                          1      15    4fx2y             9.783380     -28.516008
                                                         4.332694       3.366957
                                                         1.896187       7.200922
                                                         0.759377       1.077912
                                                         0.292577      -0.013709
                                                         0.106054      -0.000707
                          1      15    4fx2z             9.783380     -28.516008
                                                         4.332694       3.366957
                                                         1.896187       7.200922
                                                         0.759377       1.077912
                                                         0.292577      -0.013709
                                                         0.106054      -0.000707
                          1      15    4fxy2             9.783380     -28.516008
                                                         4.332694       3.366957
                                                         1.896187       7.200922
                                                         0.759377       1.077912
                                                         0.292577      -0.013709
                                                         0.106054      -0.000707
                          1      15    4fxyz             9.783380     -49.391176
                                                         4.332694       5.831740
                                                         1.896187      12.472362
                                                         0.759377       1.866998
                                                         0.292577      -0.023745
                                                         0.106054      -0.001224
                          1      15    4fxz2             9.783380     -28.516008
                                                         4.332694       3.366957
                                                         1.896187       7.200922
                                                         0.759377       1.077912
                                                         0.292577      -0.013709
                                                         0.106054      -0.000707
                          1      15    4fy3              9.783380     -12.752747
                                                         4.332694       1.505749
                                                         1.896187       3.220350
                                                         0.759377       0.482057
                                                         0.292577      -0.006131
                                                         0.106054      -0.000316
                          1      15    4fy2z             9.783380     -28.516008
                                                         4.332694       3.366957
                                                         1.896187       7.200922
                                                         0.759377       1.077912
                                                         0.292577      -0.013709
                                                         0.106054      -0.000707
                          1      15    4fyz2             9.783380     -28.516008
                                                         4.332694       3.366957
                                                         1.896187       7.200922
                                                         0.759377       1.077912
                                                         0.292577      -0.013709
                                                         0.106054      -0.000707
                          1      15    4fz3              9.783380     -12.752747
                                                         4.332694       1.505749
                                                         1.896187       3.220350
                                                         0.759377       0.482057
                                                         0.292577      -0.006131
                                                         0.106054      -0.000316

                          1      16    5fx3              9.783380       9.557678
                                                         4.332694      -2.548707
                                                         1.896187      -2.724796
                                                         0.759377       0.364995
                                                         0.292577       0.070546
                                                         0.106054      -0.000564
                          1      16    5fx2y             9.783380      21.371618
                                                         4.332694      -5.699082
                                                         1.896187      -6.092828
                                                         0.759377       0.816153
                                                         0.292577       0.157746
                                                         0.106054      -0.001262
                          1      16    5fx2z             9.783380      21.371618
                                                         4.332694      -5.699082
                                                         1.896187      -6.092828
                                                         0.759377       0.816153
                                                         0.292577       0.157746
                                                         0.106054      -0.001262
                          1      16    5fxy2             9.783380      21.371618
                                                         4.332694      -5.699082
                                                         1.896187      -6.092828
                                                         0.759377       0.816153
                                                         0.292577       0.157746
                                                         0.106054      -0.001262
                          1      16    5fxyz             9.783380      37.016728
                                                         4.332694      -9.871099
                                                         1.896187     -10.553088
                                                         0.759377       1.413619
                                                         0.292577       0.273224
                                                         0.106054      -0.002186
                          1      16    5fxz2             9.783380      21.371618
                                                         4.332694      -5.699082
                                                         1.896187      -6.092828
                                                         0.759377       0.816153
                                                         0.292577       0.157746
                                                         0.106054      -0.001262
                          1      16    5fy3              9.783380       9.557678
                                                         4.332694      -2.548707
                                                         1.896187      -2.724796
                                                         0.759377       0.364995
                                                         0.292577       0.070546
                                                         0.106054      -0.000564
                          1      16    5fy2z             9.783380      21.371618
                                                         4.332694      -5.699082
                                                         1.896187      -6.092828
                                                         0.759377       0.816153
                                                         0.292577       0.157746
                                                         0.106054      -0.001262
                          1      16    5fyz2             9.783380      21.371618
                                                         4.332694      -5.699082
                                                         1.896187      -6.092828
                                                         0.759377       0.816153
                                                         0.292577       0.157746
                                                         0.106054      -0.001262
                          1      16    5fz3              9.783380       9.557678
                                                         4.332694      -2.548707
                                                         1.896187      -2.724796
                                                         0.759377       0.364995
                                                         0.292577       0.070546
                                                         0.106054      -0.000564

                          1      17    5gx4              9.783380     -27.774460
                                                         4.332694      -0.948543
                                                         1.896187       3.602196
                                                         0.759377       0.268132
                                                         0.292577       0.004970
                                                         0.106054       0.000084
                          1      17    5gx3y             9.783380     -73.484315
                                                         4.332694      -2.509609
                                                         1.896187       9.530514
                                                         0.759377       0.709410
                                                         0.292577       0.013150
                                                         0.106054       0.000222
                          1      17    5gx3z             9.783380     -73.484315
                                                         4.332694      -2.509609
                                                         1.896187       9.530514
                                                         0.759377       0.709410
                                                         0.292577       0.013150
                                                         0.106054       0.000222
                          1      17    5gx2y2            9.783380     -94.867842
                                                         4.332694      -3.239891
                                                         1.896187      12.303840
                                                         0.759377       0.915845
                                                         0.292577       0.016977
                                                         0.106054       0.000286
                          1      17    5gx2yz            9.783380    -164.315923
                                                         4.332694      -5.611655
                                                         1.896187      21.310876
                                                         0.759377       1.586289
                                                         0.292577       0.029405
                                                         0.106054       0.000496
                          1      17    5gx2z2            9.783380     -94.867842
                                                         4.332694      -3.239891
                                                         1.896187      12.303840
                                                         0.759377       0.915845
                                                         0.292577       0.016977
                                                         0.106054       0.000286
                          1      17    5gxy3             9.783380     -73.484315
                                                         4.332694      -2.509609
                                                         1.896187       9.530514
                                                         0.759377       0.709410
                                                         0.292577       0.013150
                                                         0.106054       0.000222
                          1      17    5gxy2z            9.783380    -164.315923
                                                         4.332694      -5.611655
                                                         1.896187      21.310876
                                                         0.759377       1.586289
                                                         0.292577       0.029405
                                                         0.106054       0.000496
                          1      17    5gxyz2            9.783380    -164.315923
                                                         4.332694      -5.611655
                                                         1.896187      21.310876
                                                         0.759377       1.586289
                                                         0.292577       0.029405
                                                         0.106054       0.000496
                          1      17    5gxz3             9.783380     -73.484315
                                                         4.332694      -2.509609
                                                         1.896187       9.530514
                                                         0.759377       0.709410
                                                         0.292577       0.013150
                                                         0.106054       0.000222
                          1      17    5gy4              9.783380     -27.774460
                                                         4.332694      -0.948543
                                                         1.896187       3.602196
                                                         0.759377       0.268132
                                                         0.292577       0.004970
                                                         0.106054       0.000084
                          1      17    5gy3z             9.783380     -73.484315
                                                         4.332694      -2.509609
                                                         1.896187       9.530514
                                                         0.759377       0.709410
                                                         0.292577       0.013150
                                                         0.106054       0.000222
                          1      17    5gy2z2            9.783380     -94.867842
                                                         4.332694      -3.239891
                                                         1.896187      12.303840
                                                         0.759377       0.915845
                                                         0.292577       0.016977
                                                         0.106054       0.000286
                          1      17    5gyz3             9.783380     -73.484315
                                                         4.332694      -2.509609
                                                         1.896187       9.530514
                                                         0.759377       0.709410
                                                         0.292577       0.013150
                                                         0.106054       0.000222
                          1      17    5gz4              9.783380     -27.774460
                                                         4.332694      -0.948543
                                                         1.896187       3.602196
                                                         0.759377       0.268132
                                                         0.292577       0.004970
                                                         0.106054       0.000084

                          2       1    1s             2501.956468      -6.648262
                                                       592.946354      -2.402479
                                                       192.181142       5.587020
                                                        72.879309       8.975468
                                                        30.435743       4.034144
                                                        13.460357       0.026616
                                                         5.975633       0.024633
                                                         3.081910      -0.103635

                          2       2    2s             2501.956468      21.565153
                                                       592.946354      11.427301
                                                       192.181142      -7.471529
                                                        72.879309      -7.124314
                                                        30.435743       5.071507
                                                        13.460357       3.569635
                                                         5.975633       0.029579
                                                         3.081910       0.121549

                          2       3    2px            2501.956468       6.238369
                                                       592.946354       9.850313
                                                       192.181142      13.181751
                                                        72.879309      15.599568
                                                        30.435743      14.940935
                                                        13.460357      11.573086
                                                         5.975633       5.596363
                                                         3.081910       1.304499
                          2       3    2py            2501.956468       6.238369
                                                       592.946354       9.850313
                                                       192.181142      13.181751
                                                        72.879309      15.599568
                                                        30.435743      14.940935
                                                        13.460357      11.573086
                                                         5.975633       5.596363
                                                         3.081910       1.304499
                          2       3    2pz            2501.956468       6.238369
                                                       592.946354       9.850313
                                                       192.181142      13.181751
                                                        72.879309      15.599568
                                                        30.435743      14.940935
                                                        13.460357      11.573086
                                                         5.975633       5.596363
                                                         3.081910       1.304499

                          2       4    3px            2501.956468      70.850172
                                                       592.946354    -189.899364
                                                       192.181142      59.653092
                                                        72.879309    -115.894302
                                                        30.435743     -39.011883
                                                        13.460357     -28.983328
                                                         5.975633      16.162261
                                                         3.081910      -4.844370
                          2       4    3py            2501.956468      70.850172
                                                       592.946354    -189.899364
                                                       192.181142      59.653092
                                                        72.879309    -115.894302
                                                        30.435743     -39.011883
                                                        13.460357     -28.983328
                                                         5.975633      16.162261
                                                         3.081910      -4.844370
                          2       4    3pz            2501.956468      70.850172
                                                       592.946354    -189.899364
                                                       192.181142      59.653092
                                                        72.879309    -115.894302
                                                        30.435743     -39.011883
                                                        13.460357     -28.983328
                                                         5.975633      16.162261
                                                         3.081910      -4.844370

                          3       1    1s          1467458.937751       0.871207
                                                    219756.225616       1.225235
                                                     50010.782690       1.777092
                                                     14164.719143       3.481877
                                                      4620.778771       4.582703
                                                      1667.788527       7.172028
                                                       650.345233       9.475372
                                                       269.437667      11.658285
                                                       117.095369      10.125053
                                                        52.760008       4.501945

     RI Auxiliary Basis Set                                    aug-cc-pV5Z-OPTRI

       Number of orbital shell sets:                                          24
       Number of orbital shells:                                              24
       Number of primitive Cartesian functions:                               24
       Number of Cartesian basis functions:                                  195
       Number of spherical basis functions:                                  128
       Norm type:                                                              2

       Normalised Cartesian orbitals:

                        Set   Shell   Orbital            Exponent    Coefficient

                          1       1    1s                0.174934       0.192782

                          2       1    1dx2              0.309015       0.210801
                          2       1    1dxy              0.309015       0.365119
                          2       1    1dxz              0.309015       0.365119
                          2       1    1dy2              0.309015       0.210801
                          2       1    1dyz              0.309015       0.365119
                          2       1    1dz2              0.309015       0.210801

                          3       1    1px               0.380124       0.425448
                          3       1    1py               0.380124       0.425448
                          3       1    1pz               0.380124       0.425448

                          4       1    1gx4              0.391908       0.084663
                          4       1    1gx3y             0.391908       0.223996
                          4       1    1gx3z             0.391908       0.223996
                          4       1    1gx2y2            0.391908       0.289178
                          4       1    1gx2yz            0.391908       0.500871
                          4       1    1gx2z2            0.391908       0.289178
                          4       1    1gxy3             0.391908       0.223996
                          4       1    1gxy2z            0.391908       0.500871
                          4       1    1gxyz2            0.391908       0.500871
                          4       1    1gxz3             0.391908       0.223996
                          4       1    1gy4              0.391908       0.084663
                          4       1    1gy3z             0.391908       0.223996
                          4       1    1gy2z2            0.391908       0.289178
                          4       1    1gyz3             0.391908       0.223996
                          4       1    1gz4              0.391908       0.084663

                          5       1    1s                0.438585       0.384105

                          6       1    1dx2              0.784003       1.075141
                          6       1    1dxy              0.784003       1.862199
                          6       1    1dxz              0.784003       1.862199
                          6       1    1dy2              0.784003       1.075141
                          6       1    1dyz              0.784003       1.862199
                          6       1    1dz2              0.784003       1.075141

                          7       1    1hx5              0.795238       0.352338
                          7       1    1hx4y             0.795238       1.057015
                          7       1    1hx4z             0.795238       1.057015
                          7       1    1hx3y2            0.795238       1.614617
                          7       1    1hx3yz            0.795238       2.796598
                          7       1    1hx3z2            0.795238       1.614617
                          7       1    1hx2y3            0.795238       1.614617
                          7       1    1hx2y2z           0.795238       3.610393
                          7       1    1hx2yz2           0.795238       3.610393
                          7       1    1hx2z3            0.795238       1.614617
                          7       1    1hxy4             0.795238       1.057015
                          7       1    1hxy3z            0.795238       2.796598
                          7       1    1hxy2z2           0.795238       3.610393
                          7       1    1hxyz3            0.795238       2.796598
                          7       1    1hxz4             0.795238       1.057015
                          7       1    1hy5              0.795238       0.352338
                          7       1    1hy4z             0.795238       1.057015
                          7       1    1hy3z2            0.795238       1.614617
                          7       1    1hy2z3            0.795238       1.614617
                          7       1    1hyz4             0.795238       1.057015
                          7       1    1hz5              0.795238       0.352338

                          8       1    1px               0.803345       1.084096
                          8       1    1py               0.803345       1.084096
                          8       1    1pz               0.803345       1.084096

                          9       1    1gx4              0.830002       0.666658
                          9       1    1gx3y             0.830002       1.763811
                          9       1    1gx3z             0.830002       1.763811
                          9       1    1gx2y2            0.830002       2.277070
                          9       1    1gx2yz            0.830002       3.944002
                          9       1    1gx2z2            0.830002       2.277070
                          9       1    1gxy3             0.830002       1.763811
                          9       1    1gxy2z            0.830002       3.944002
                          9       1    1gxyz2            0.830002       3.944002
                          9       1    1gxz3             0.830002       1.763811
                          9       1    1gy4              0.830002       0.666658
                          9       1    1gy3z             0.830002       1.763811
                          9       1    1gy2z2            0.830002       2.277070
                          9       1    1gyz3             0.830002       1.763811
                          9       1    1gz4              0.830002       0.666658

                         10       1    1s                1.074544       0.752191

                         11       1    1ix6              1.179689       0.831392
                         11       1    1ix5y             1.179689       2.757417
                         11       1    1ix5z             1.179689       2.757417
                         11       1    1ix4y2            1.179689       4.775986
                         11       1    1ix4yz            1.179689       8.272250
                         11       1    1ix4z2            1.179689       4.775986
                         11       1    1ix3y3            1.179689       5.651023
                         11       1    1ix3y2z           1.179689      12.636071
                         11       1    1ix3yz2           1.179689      12.636071
                         11       1    1ix3z3            1.179689       5.651023
                         11       1    1ix2y4            1.179689       4.775986
                         11       1    1ix2y3z           1.179689      12.636071
                         11       1    1ix2y2z2          1.179689      16.313097
                         11       1    1ix2yz3           1.179689      12.636071
                         11       1    1ix2z4            1.179689       4.775986
                         11       1    1ixy5             1.179689       2.757417
                         11       1    1ixy4z            1.179689       8.272250
                         11       1    1ixy3z2           1.179689      12.636071
                         11       1    1ixy2z3           1.179689      12.636071
                         11       1    1ixyz4            1.179689       8.272250
                         11       1    1ixz5             1.179689       2.757417
                         11       1    1iy6              1.179689       0.831392
                         11       1    1iy5z             1.179689       2.757417
                         11       1    1iy4z2            1.179689       4.775986
                         11       1    1iy3z3            1.179689       5.651023
                         11       1    1iy2z4            1.179689       4.775986
                         11       1    1iyz5             1.179689       2.757417
                         11       1    1iz6              1.179689       0.831392

                         12       1    1hx5              1.806305       5.068917
                         12       1    1hx4y             1.806305      15.206751
                         12       1    1hx4z             1.806305      15.206751
                         12       1    1hx3y2            1.806305      23.228696
                         12       1    1hx3yz            1.806305      40.233282
                         12       1    1hx3z2            1.806305      23.228696
                         12       1    1hx2y3            1.806305      23.228696
                         12       1    1hx2y2z           1.806305      51.940944
                         12       1    1hx2yz2           1.806305      51.940944
                         12       1    1hx2z3            1.806305      23.228696
                         12       1    1hxy4             1.806305      15.206751
                         12       1    1hxy3z            1.806305      40.233282
                         12       1    1hxy2z2           1.806305      51.940944
                         12       1    1hxyz3            1.806305      40.233282
                         12       1    1hxz4             1.806305      15.206751
                         12       1    1hy5              1.806305       5.068917
                         12       1    1hy4z             1.806305      15.206751
                         12       1    1hy3z2            1.806305      23.228696
                         12       1    1hy2z3            1.806305      23.228696
                         12       1    1hyz4             1.806305      15.206751
                         12       1    1hz5              1.806305       5.068917

                         13       1    1gx4              1.939661       6.881474
                         13       1    1gx3y             1.939661      18.206669
                         13       1    1gx3z             1.939661      18.206669
                         13       1    1gx2y2            1.939661      23.504708
                         13       1    1gx2yz            1.939661      40.711349
                         13       1    1gx2z2            1.939661      23.504708
                         13       1    1gxy3             1.939661      18.206669
                         13       1    1gxy2z            1.939661      40.711349
                         13       1    1gxyz2            1.939661      40.711349
                         13       1    1gxz3             1.939661      18.206669
                         13       1    1gy4              1.939661       6.881474
                         13       1    1gy3z             1.939661      18.206669
                         13       1    1gy2z2            1.939661      23.504708
                         13       1    1gyz3             1.939661      18.206669
                         13       1    1gz4              1.939661       6.881474

                         14       1    1fx3              1.990616       6.929092
                         14       1    1fx2y             1.990616      15.493920
                         14       1    1fx2z             1.990616      15.493920
                         14       1    1fxy2             1.990616      15.493920
                         14       1    1fxyz             1.990616      26.836256
                         14       1    1fxz2             1.990616      15.493920
                         14       1    1fy3              1.990616       6.929092
                         14       1    1fy2z             1.990616      15.493920
                         14       1    1fyz2             1.990616      15.493920
                         14       1    1fz3              1.990616       6.929092

                         15       1    1px               2.222777       3.868655
                         15       1    1py               2.222777       3.868655
                         15       1    1pz               2.222777       3.868655

                         16       1    1dx2              4.102058      19.460886
                         16       1    1dxy              4.102058      33.707243
                         16       1    1dxz              4.102058      33.707243
                         16       1    1dy2              4.102058      19.460886
                         16       1    1dyz              4.102058      33.707243
                         16       1    1dz2              4.102058      19.460886

                         17       1    1fx3              5.090820      57.309533
                         17       1    1fx2y             5.090820     128.148011
                         17       1    1fx2z             5.090820     128.148011
                         17       1    1fxy2             5.090820     128.148011
                         17       1    1fxyz             5.090820     221.958866
                         17       1    1fxz2             5.090820     128.148011
                         17       1    1fy3              5.090820      57.309533
                         17       1    1fy2z             5.090820     128.148011
                         17       1    1fyz2             5.090820     128.148011
                         17       1    1fz3              5.090820      57.309533

                         18       1    1s                7.586851       3.258039

                         19       1    1px              12.957191      35.041175
                         19       1    1py              12.957191      35.041175
                         19       1    1pz              12.957191      35.041175

                         20       1    1fx3             13.019310     473.998948
                         20       1    1fx2y            13.019310    1059.893869
                         20       1    1fx2z            13.019310    1059.893869
                         20       1    1fxy2            13.019310    1059.893869
                         20       1    1fxyz            13.019310    1835.790031
                         20       1    1fxz2            13.019310    1059.893869
                         20       1    1fy3             13.019310     473.998948
                         20       1    1fy2z            13.019310    1059.893869
                         20       1    1fyz2            13.019310    1059.893869
                         20       1    1fz3             13.019310     473.998948

                         21       1    1dx2             19.446194     296.394425
                         21       1    1dxy             19.446194     513.370203
                         21       1    1dxz             19.446194     513.370203
                         21       1    1dy2             19.446194     296.394425
                         21       1    1dyz             19.446194     513.370203
                         21       1    1dz2             19.446194     296.394425

                         22       1    1s               29.237008       8.961068

                         23       1    1px              40.395892     145.164891
                         23       1    1py              40.395892     145.164891
                         23       1    1pz              40.395892     145.164891

                         24       1    1dx2             42.400770    1159.614153
                         24       1    1dxy             42.400770    2008.510630
                         24       1    1dxz             42.400770    2008.510630
                         24       1    1dy2             42.400770    1159.614153
                         24       1    1dyz             42.400770    2008.510630
                         24       1    1dz2             42.400770    1159.614153

       Atomic covalent radius [Angstrom]:                                  0.990

       Atomic van der Waals radius [Angstrom]:                             1.750

     The atoms of this atomic kind are PAW atoms (GAPW):
       Hard Gaussian function radius:                                      1.512
       Rho0 radius:                                                        1.512
       Maximum GTO radius used for PAW projector construction:            24.566

     GAPW Soft Basis Set                                QZVPP-MOLOPT-GGA-ae_soft

       Number of orbital shell sets:                                           3
       Number of orbital shells:                                              22
       Number of primitive Cartesian functions:                                6
       Number of Cartesian basis functions:                                   86
       Number of spherical basis functions:                                   70
       Norm type:                                                              2

       Normalised Cartesian orbitals:

                        Set   Shell   Orbital            Exponent    Coefficient

                          1       1    1s                4.332694       0.000000
                                                         1.896187      -0.237846
                                                         0.759377      -0.095349
                                                         0.292577       0.017325
                                                         0.106054       0.002943

                          1       2    2s                4.332694       0.000000
                                                         1.896187       0.267782
                                                         0.759377       0.020038
                                                         0.292577       0.041718
                                                         0.106054       0.001290

                          1       3    3s                4.332694       0.000000
                                                         1.896187       4.335925
                                                         0.759377      -1.167200
                                                         0.292577       0.071939
                                                         0.106054      -0.000197

                          1       4    4s                4.332694       0.000000
                                                         1.896187       0.373258
                                                         0.759377       0.471300
                                                         0.292577       0.033461
                                                         0.106054      -0.010773

                          1       5    5s                4.332694       0.000000
                                                         1.896187      -0.297252
                                                         0.759377      -0.086739
                                                         0.292577       0.366568
                                                         0.106054      -0.014775

                          1       6    6s                4.332694       0.000000
                                                         1.896187       0.011233
                                                         0.759377       0.036507
                                                         0.292577       0.022295
                                                         0.106054       0.119640

                          1       7    2px               4.332694       0.000000
                                                         1.896187       3.110576
                                                         0.759377      -0.071663
[...]
 hfx_ks_matrix                       83  8.0    0.003    0.004  689.218  689.330
 integrate_four_center               83  9.0    7.674    9.991  689.210  689.325
 mp2_main                             1  3.0    0.000    0.000  686.851  687.543
 mp2_gpw_main                         1  4.0    0.000    0.000  684.833  684.885
 init_scf_loop                        1  4.0    0.000    0.000  660.831  660.831
 rpa_ri_compute_en                    1  5.0    0.001    0.004  634.877  634.881
 rpa_num_int                          1  6.0    0.002    0.002  633.650  633.694
 compute_GW_self_energy             100  7.0    0.012    0.016  603.346  606.011
 compute_GW_self_energy_deep        100  8.0  429.853  431.085  600.672  603.338
 integrate_four_center_main          83 10.0    6.412  336.466  152.005  541.136
 mp_sync                           1451 11.1  400.289  490.458  400.289  490.458
 integrate_four_center_bin        22801 11.0  145.594  226.952  145.594  226.952
 parallel_gemm_fm                   218  9.5    0.001    0.001  182.822  185.168
 parallel_gemm_fm_gemm              218 10.5    0.001    0.001  182.821  185.168
 cp_fm_gemm                         218 11.5  182.821  185.167  182.821  185.167
 calc_screening_functions             1 10.0  112.455  121.198  115.605  124.509
 scf_env_do_scf_inner_loop           82  4.0    0.002    0.005  115.760  115.764
 mp2_ri_gpw_compute_in                1  5.0    0.019    0.029   49.849   49.854
 mp2_ri_gpw_compute_in_loop           1  6.0    0.000    0.000   49.721   49.732
 contract_B_L                         4  7.0    0.066    0.078   36.185   48.514
 mp_cart_create                     601 10.0   31.077   43.534   31.078   43.535
 dbt_pgrid_create_expert             84 10.8    0.000    0.000   31.051   43.506
 mp2_eri_3c_integrate                 1  7.0    0.014    0.022   12.959   43.208
 integrate_set_3c                  3501  8.0   12.102   40.697   12.945   43.188
 prepare_gapw_den                    83  8.0    0.002    0.003   32.784   32.825
 mp_sum_dv                        57787 10.7   27.985   28.797   27.985   28.797
 calculate_rho_atom                 415  9.0    2.893   28.532    2.893   28.532
 qs_rho_update_rho_low               83  5.0    0.001    0.001   19.216   19.218
 mp_sum_d                         17036  7.1   15.490   17.374   15.490   17.374
 start_bse_calculation                1  7.0    0.000    0.000   16.418   16.419
 mp_sum_dm                         4994  7.7   13.267   13.393   13.267   13.393
 mp_sum_l                          3733  9.4    9.441   13.099    9.441   13.099
 integrate_four_center_load          83 10.0    0.000    0.001    9.098   12.850
 hfx_load_balance                     1 11.0    0.000    0.000    9.098   12.850
 hfx_load_balance_range               1 12.0    0.000    0.000    8.879   12.632
 cp_fm_syevd                          4  7.8    0.000    0.000   11.780   11.841
 cp_fm_redistribute_end               4  8.8    5.874   11.737    5.893   11.805
 cp_fm_syevd_base                     4  8.8    5.849   11.705    5.849   11.705
 calculate_rho_elec                  83  6.0    0.077    0.082   11.169   11.170
 rpa_num_int_RPA_matrix_operati     100  7.0    0.001    0.003   11.032   11.034
 calculate_vxc_atom                  83  8.0    0.073    1.335   10.440   10.440
 gaVxcgb_GC                         112  9.0    0.071    9.001    0.071    9.001
 calc_mat_Q                         100  8.0    0.000    0.000    8.740    8.777
 contract_S_to_Q                    100  9.0    0.001    0.001    8.723    8.760
 calculate_rho_atom_coeff            83  6.0    0.260    0.420    8.047    8.048
 density_rs2pw                       83  7.0    0.004    0.005    6.702    8.021
 pw_poisson_solve                    83  8.0    0.280    0.331    7.618    7.621
 create_hermitian_form_of_ABBA        1  8.0    0.000    0.000    7.509    7.515
 integrate_vhg0_rspace               83  8.0    0.808    0.958    7.046    7.303
 transfer_rs2pw                     416  8.4    0.007    0.010    5.897    7.265
 powell_optimize                2467745 11.0    6.158    6.906    6.158    6.906
 diagonalize_C                        1  8.0    0.000    0.000    6.688    6.692
 cp_fm_power                          2  7.5    0.055    0.072    6.456    6.461
 qs_energies_init_hamiltonians        1  3.0    0.000    0.000    5.577    5.577
 build_core_hamiltonian_matrix        1  4.0    0.000    0.000    5.550    5.550
 overlap_condnum                      1  5.0    0.000    0.000    5.529    5.546
 mp_waitall_1                    259666 12.5    4.445    5.401    4.445    5.401
 dbt_total                            8  8.0    0.000    0.000    5.378    5.379
 arnoldi_conjugate_gradient           5  6.0    0.069    0.082    5.212    5.212
 grid_collocate_task_list            83  7.0    4.091    5.209    4.091    5.209
 calc_pair_dist_radii                 1 10.0    1.712    1.964    4.720    5.121
 ps_wavelet_solve                    83  9.0    3.321    4.159    5.002    5.113
 dbt_contract                         4  9.0    0.001    0.001    4.407    5.009
 fft_wrap_pw1pw2                   1167  9.8    0.012    0.015    4.802    4.972
 mp_waitany                        6160 11.0    2.620    4.453    2.620    4.453
 fft_wrap_pw1pw2_250                831 11.2    0.174    0.187    4.096    4.291
 integrate_four_center_getP          83 10.0    0.156    0.182    3.637    3.933
 mp_alltoall_d54                     83 10.0    1.118    3.885    1.118    3.885
 fft3d_pb                           831 12.2    0.597    0.675    3.696    3.884
 create_qs_kind_set                   1  2.0    0.000    0.000    3.521    3.522
 read_qs_kind                         5  3.0    1.934    1.983    3.521    3.522
 transfer_rs2pw_250                 167 10.0    0.279    0.332    2.063    3.474
 dbt_tas_multiply                     8 11.5    0.000    0.000    3.426    3.427
 dbt_tas_total                        8 12.5    0.008    0.029    3.424    3.425
 mp_alltoall_z22v                  1998 13.9    3.124    3.322    3.124    3.322
 sum_up_and_integrate                29  7.9    0.000    0.000    3.108    3.250
 integrate_v_rspace                  29  8.9    0.001    0.001    3.107    3.248
 dbcsr_sym_matrix_vector_mult     10397  7.1    0.167    0.185    2.660    2.944
 mp_alltoall_d11v                   731 10.4    2.478    2.905    2.478    2.905
 calculate_rho0_atom                415  9.0    2.112    2.886    2.112    2.886
 dbcsr_multiply_generic             716  9.2    0.033    0.036    2.614    2.764
 cp_fm_cholesky_invert              102  8.0    2.561    2.628    2.561    2.628
 Vh_1c_gg_integrals                  83  8.0    0.034    2.547    2.551    2.555
 integrate_four_center_dist_KS       83 10.0    0.122    0.143    2.521    2.523
 abc_contract                      3501  9.0    0.843    2.490    0.843    2.490
 transfer_rs2pw_30                   83  9.0    0.926    1.001    2.405    2.459
 qs_scf_new_mos                      82  5.0    0.000    0.000    2.412    2.449
 qs_scf_loop_do_ot                   82  6.0    0.000    0.001    2.412    2.449
 dbcsr_add_d                      15482  7.1    0.014    0.017    0.262    2.441
 dbcsr_add_anytype                15482  8.1    0.018    0.210    0.248    2.425
 dbt_tas_dbm                          8 13.5    0.000    0.000    2.294    2.294
 transfer_pw2rs                     200 10.1    0.003    0.003    2.061    2.289
 ot_scf_mini                         82  7.0    0.001    0.001    2.165    2.203
 dbm_multiply                         8 15.5    1.950    2.162    1.950    2.162
 dbt_tas_mm_1N                        6 14.5    0.000    0.000    1.916    2.128
 qs_vxc_create                       83  8.0    0.001    0.001    2.108    2.109
 mp_sendrecv_dv                   84826 10.0    1.981    2.046    1.981    2.046
 compute_Erpa_by_freq_int           100  8.0    0.008    0.014    1.963    1.965
 potential_pw2rs                     29  9.9    0.002    0.002    1.738    1.887
 cp_fm_cholesky_decompose           105  8.9    1.734    1.757    1.734    1.757
 dbt_copy                            12 10.1    0.000    0.001    0.719    1.705
 parser_read_line                416137  4.0    0.139    0.155    1.587    1.608
 xc_pw_derive                       330 11.0    0.001    0.002    1.565    1.597
 xc_rho_set_and_dset_create          82 10.0    0.021    0.022    1.224    1.494
 parser_read_line_low               447  5.0    0.113    0.624    1.448    1.476
 dbcsr_finalize                   16360  9.9    0.017    0.486    0.138    1.445
 broadcast_input_information        447  6.0    0.292    0.328    1.335    1.405
 put_rho0_on_grid                    83  9.0    0.094    0.137    1.354    1.396
 dbt_reshape                          8 11.6    0.086    0.095    0.422    1.389
 cp_fm_to_fm_submat_general         109 10.1    0.723    1.385    0.723    1.385
 rs_gather_matrices                  29  9.9    0.004    0.005    1.316    1.384
 create_integ_mat                     4  6.0    0.006    0.010    1.222    1.377
 array2fm                             4  7.0    0.000    0.000    1.055    1.352
 mp2_main_alloc_hfx                   1  4.0    0.655    1.345    0.655    1.345
 mp_sum_i                            22  9.8    0.693    1.344    0.693    1.344
 restraint_control                    1  2.0    0.000    0.000    0.692    1.342
 dbcsr_col_vec_to_rep_row         10480  8.1    0.075    0.087    1.015    1.339
 mp_isendrecv_dv                 114464 11.5    0.475    1.325    0.475    1.325
 mp_waitall_2                        54 15.7    0.312    1.300    0.312    1.300
 grid_integrate_task_list            29  9.9    0.052    1.250    0.052    1.250
 dbt_communicate_buffer               8 12.6    0.005    0.005    0.287    1.246
 dbcsr_rep_row_to_rep_col_vec     10397  8.1    0.056    0.075    0.513    1.231
 multiply_cannon                    716 10.2    0.101    0.104    1.110    1.197
 cube_transpose_1                   556 13.5    0.038    0.055    0.980    1.196
 transfer_pw2rs_250                 113 10.5    0.177    0.195    0.947    1.158
 dbt_tas_estimate_result_nze          4 12.0    0.009    0.013    1.153    1.153
 compute_vec_Sigma_x_minus_vxc_       1  4.0    0.000    0.000    1.116    1.117
 transfer_rs2pw_90                   83  9.0    0.067    0.076    0.676    1.071
 create_B                             1  8.0    0.000    0.000    1.063    1.070
 xc_vxc_pw_create                    28  9.0    0.029    0.030    1.058    1.058
 update_ks_atom                      83  8.0    0.163    0.412    0.808    1.055
 xc_exc_calc                         54  9.0    0.050    0.053    1.049    1.049
 mp_bcast_dv                      10484  9.1    0.578    1.043    0.578    1.043
 cube_transpose_2                   611 12.1    0.033    0.041    0.846    1.032
 multiply_cannon_loop               716 11.2    0.178    0.206    0.902    0.987
 ot_mini                             82  8.0    0.000    0.001    0.950    0.960
 mp_alltoall_d45                     84 10.0    0.631    0.907    0.631    0.907
 cube_transpose_4                   362 12.8    0.035    0.043    0.738    0.878
 cube_transpose_3                   469 13.4    0.046    0.062    0.714    0.866
 make_m2s                          1432 10.2    0.029    0.031    0.808    0.861
 qs_ot_get_derivative                28  9.0    0.000    0.000    0.832    0.840
 dbt_remap                            8 10.0    0.003    0.004    0.818    0.819
 mp_bcast_am_src                    447  7.0    0.645    0.734    0.698    0.789
 transfer_rs2pw_10                   83  9.0    0.244    0.260    0.746    0.786
 make_images                       1432 11.2    0.248    0.259    0.719    0.761
 fft3d_ps                           336 10.8    0.035    0.060    0.676    0.750
 mp_bcast_i_src                    1793  7.0    0.323    0.738    0.323    0.738
 dbcsr_merge_all                  16241 10.9    0.034    0.554    0.100    0.731
 mp_isend_dm3                      3024 11.0    0.226    0.718    0.226    0.718
 create_A                             1  8.0    0.002    0.003    0.712    0.714
 dbcsr_iterator_start            126641  8.9    0.272    0.560    0.300    0.696
 transfer_pw2rs_30                   29 11.9    0.302    0.342    0.664    0.691
 dbt_nd_mp_comm                       8 11.0    0.000    0.000    0.539    0.680
 mp_bcast_dm                       3408  9.1    0.649    0.659    0.649    0.659
 array2fm_info                        4  8.0    0.476    0.619    0.496    0.630
 dbt_tas_replicate                    8 13.5    0.302    0.370    0.574    0.611
 xc_pw_divergence                    28 10.0    0.000    0.000    0.582    0.607
 qs_ot_get_derivative_taylor         28 10.0    0.001    0.001    0.543    0.550
 pw_poisson_rebuild                  83  9.0    0.000    0.000    0.519    0.524
 ps_wavelet_create                    1 10.0    0.000    0.000    0.519    0.524
 RS_z_slice_distribution              1 11.0    0.423    0.502    0.519    0.524
 qs_ot_get_orbitals                  82  8.0    0.000    0.000    0.484    0.492
 cp_fm_syrk                           2  8.5    0.472    0.486    0.472    0.486
 cp2k_distribution_to_z_slices       83  9.0    0.156    0.166    0.451    0.483
 array2fm_fill                        4  8.0    0.132    0.197    0.258    0.477
 fft_wrap_pw1pw2_90                 112  9.8    0.006    0.017    0.366    0.440
 init_scf_run                         1  3.0    0.000    0.000    0.397    0.398
 scf_env_initial_rho_setup            1  4.0    0.000    0.000    0.397    0.397
 dbcsr_copy                       41701  7.6    0.239    0.284    0.333    0.381
 copy_dbcsr_to_fm                    41  7.7    0.001    0.001    0.337    0.372
 qs_init_subsys                       1  2.0    0.010    0.011    0.357    0.357
 mult_B_with_W                        1  8.0    0.000    0.000    0.347    0.357
 xc_functional_eval                 738 10.9    0.001    0.003    0.083    0.354
 dbt_split_blocks_generic            20  8.8    0.114    0.131    0.343    0.353
 pbe_lda_eval                       738 11.9    0.082    0.353    0.082    0.353
 Q_trace_and_add_unit_matrix        100  8.0    0.012    0.015    0.328    0.351
 array2fm_buffer_send                 4  8.0    0.242    0.344    0.242    0.344
 dbcsr_sym_matrix_vector_mult_l   10397  8.1    0.101    0.227    0.220    0.343
 hybrid_alltoall_any               1475 13.1    0.145    0.180    0.295    0.341
 qs_ot_get_p                         83  8.0    0.000    0.001    0.316    0.339
 multiply_cannon_metrocomm3       21672 12.3    0.066    0.071    0.202    0.337
 dbcsr_iterator_stop             126641  8.9    0.170    0.300    0.192    0.330
 dbm_reserve_blocks                  72 14.2    0.281    0.306    0.281    0.306
 cp_fm_uplo_to_full                 106  8.0    0.082    0.301    0.082    0.301
 mp_irecv_dm3                      3024 11.0    0.073    0.298    0.073    0.298
 qs_env_setup                         1  3.0    0.000    0.000    0.287    0.294
 qs_env_rebuild_pw_env                2  3.5    0.000    0.000    0.285    0.293
 pw_env_rebuild                       1  5.0    0.000    0.001    0.285    0.293
 dbcsr_complete_redistribute         54  8.9    0.059    0.070    0.266    0.292
 mp_wait                            211  9.0    0.126    0.287    0.126    0.287
 dbt_tas_reshape                     11 13.6    0.001    0.001    0.273    0.284
 multiply_cannon_multrec          21672 12.3    0.182    0.267    0.186    0.270
 transfer_pw2rs_10                   29 11.9    0.087    0.090    0.253    0.267
 dbcsr_work_create                18426 11.5    0.015    0.175    0.026    0.267
 rs_scatter_matrices                 83  7.0    0.002    0.003    0.254    0.260
 calculate_dm_sparse                 83  7.0    0.000    0.000    0.255    0.259
 mp_sum_iv                          176 10.0    0.178    0.246    0.178    0.246
 mp_isend_dv                      51192 13.3    0.149    0.241    0.149    0.241
 xz_to_yz                           249 11.0    0.017    0.037    0.206    0.240
 dbt_tas_reserve_blocks_index        64 13.1    0.003    0.004    0.213    0.240
 make_images_data                  1432 12.2    0.026    0.031    0.182    0.237
 make_images_sizes                 1432 12.2    0.002    0.002    0.228    0.236
 mp_alltoall_i44                   1432 13.2    0.227    0.234    0.227    0.234
 dbt_split_copyback                   4 10.0    0.139    0.165    0.198    0.234
 transfer_pw2rs_90                   29 11.9    0.024    0.027    0.195    0.228
 dbcsr_scale_anytype              15571  9.1    0.036    0.056    0.185    0.228
 dbcsr_new_transposed               326 10.3    0.002    0.003    0.222    0.227
 dbcsr_work_destroy_all           18426 12.4    0.015    0.158    0.022    0.225
 dbcsr_redistribute                  54 12.0    0.003    0.003    0.216    0.220
 mp_max_i                           654  2.9    0.140    0.219    0.140    0.219
 allocate_matrices_gw                 1  7.0    0.002    0.002    0.174    0.219
 dbcsr_desymmetrize_deep             43  8.5    0.014    0.017    0.202    0.210
 get_vec_sigma_x                      1  8.0    0.001    0.001    0.160    0.208
 mp_cart_rank                    385648 10.8    0.117    0.202    0.117    0.202
 dbt_distribution_new_expert         76 10.1    0.001    0.002    0.182    0.202
 rs_grid_zero                       309 10.5    0.182    0.201    0.182    0.201
 ao_to_mo_and_store_B_E_Ex_gw_1       5  7.0    0.046    0.079    0.144    0.197
 fft_wrap_pw1pw2_30                 112  9.8    0.002    0.010    0.186    0.195
 create_fast_row_vec_access       20877  8.1    0.119    0.144    0.166    0.192
 create_fast_col_vec_access       20877  8.1    0.120    0.143    0.166    0.190
 pw_grid_setup                        4  6.0    0.000    0.000    0.182    0.189
 pw_grid_setup_internal               4  7.0    0.002    0.003    0.182    0.189
 dbt_reserve_blocks_index            36 10.8    0.004    0.005    0.160    0.184
 mp_alltoall_i11v                   367 11.3    0.178    0.178    0.178    0.178
 multiply_cannon_metrocomm4       20956 12.3    0.064    0.072    0.132    0.175
 dbcsr_iterator_seek             126641  9.9    0.028    0.171    0.028    0.171
 pw_integral_ab_c1d_c1d_gs           83  9.0    0.106    0.113    0.145    0.166
 eigensolver                          1  4.0    0.000    0.000    0.164    0.165
 ao_to_mo_and_store_B_mult_gw_1       5  7.0    0.000    0.000    0.117    0.164
 ao_to_mo_and_store_B_E_Ex_bse_       5  7.0    0.047    0.064    0.128    0.161
 dbt_tas_communicate_buffer          19 15.6    0.007    0.008    0.118    0.159
 postprocess_bse                      1  9.0    0.000    0.000    0.155    0.159
 multiply_cannon_metrocomm1       21672 12.3    0.035    0.037    0.082    0.159
 dbt_reserve_blocks_index_array      28 10.6    0.000    0.000    0.138    0.159
 ao_to_mo_and_store_B_mult_bse_       5  7.0    0.000    0.000    0.109    0.156
 dbcsr_create_new                 50567  9.2    0.100    0.108    0.138    0.148
 -------------------------------------------------------------------------------

 The number of warnings for this run is : 3
 
 -------------------------------------------------------------------------------
  **** **** ******  **  PROGRAM ENDED AT                 2025-05-01 00:25:30.909
 ***** ** ***  *** **   PROGRAM RAN ON                              i01r08c04s12
 **    ****   ******    PROGRAM RAN BY                                   di38fab
 ***** **    ** ** **   PROGRAM PROCESS ID                               1873485
  **** **  *******  **  PROGRAM STOPPED IN /hppfs/scratch/04/di38fab/07_MOL_non_
                                           aug/05_MOL_non_aug/05_MOL/aUKBqsEOTmq
                                           69kFe5R_nOg/5k_set_final_qzvp/JEVVIQ/
                                           QZVPP/GW+BSE
