SIRIUS 7.6.1, git hash: https://api.github.com/repos/electronic-structure/SIRIUS/git/ref/tags/v7.6.1
 DBCSR| CPU Multiplication driver                                           XSMM (U)
 DBCSR| Multrec recursion limit                                              512 (U)
 DBCSR| Multiplication stack size                                           1000 (D)
 DBCSR| Maximum elements for images                                    UNLIMITED (U)
 DBCSR| Multiplicative factor virtual images                                   1 (U)
 DBCSR| Use multiplication densification                                       T (D)
 DBCSR| Multiplication size stacks                                             3 (U)
 DBCSR| Use memory pool for CPU allocation                                     F (U)
 DBCSR| Number of 3D layers                                               SINGLE (U)
 DBCSR| Use MPI memory allocation                                              F (U)
 DBCSR| Use RMA algorithm                                                      F (U)
 DBCSR| Use Communication thread                                               T (U)
 DBCSR| Communication thread load                                             75 (D)
 DBCSR| MPI: My process id                                                     0
 DBCSR| MPI: Number of processes                                             128
 DBCSR| OMP: Current number of threads                                         4
 DBCSR| OMP: Max number of threads                                             4
 DBCSR| Split modifier for TAS multiplication algorithm                  1.0E+00 (U)


  **** **** ******  **  PROGRAM STARTED AT               2025-04-21 19:19:28.814
 ***** ** ***  *** **   PROGRAM STARTED ON                              n2cn0172
 **    ****   ******    PROGRAM STARTED BY                              metdyn02
 ***** **    ** ** **   PROGRAM PROCESS ID                               2989528
  **** **  *******  **  PROGRAM STARTED IN /scratch/hpc-prf-metdyn/metdyn02_Remi
                                           /10_MOL/05_MOL/W4-11+ALK/c-hono/TZVP/
                                           TDDFT/RILIM

 CP2K| version string:                 CP2K version 2025.1 (Development Version)
 CP2K| source code revision number:                                  git:4803c37
 CP2K| cp2kflags: omp libint fftw3 libxc libgrpp elpa parallel scalapack mpi_f08
 CP2K|             cosma xsmm plumed2 spglib sirius libvori libbqb libvdwxc hdf5
 CP2K| is freely available from                            https://www.cp2k.org/
 CP2K| Program compiled at                         Thu Apr 10 12:05:05 CEST 2025
 CP2K| Program compiled on                                              n2login1
 CP2K| Program compiled for                                                local
 CP2K| Data directory path    /opt/software/pc2/EB-SW/software/CP2K/2024.1-foss-
 CP2K| Input file name                                                    GW.inp

 GLOBAL| Force Environment number                                              1
 GLOBAL| Basis set file name            /scratch/hpc-prf-metdyn/metdyn02_Remi/BA
 GLOBAL| Potential file name            /pc2/groups/hpc-prf-metdyn/metdyn02_Remi
 GLOBAL| MM Potential file name                                     MM_POTENTIAL
 GLOBAL| Coordinate file name                                      __STD_INPUT__
 GLOBAL| Method name                                                        CP2K
 GLOBAL| Project name                                                       MoS2
 GLOBAL| Run type                                                         ENERGY
 GLOBAL| FFT library                                                       FFTW3
 GLOBAL| Diagonalization library                                            ELPA
 GLOBAL| DGEMM library                                                      BLAS
 GLOBAL| Minimum number of eigenvectors for ELPA usage                        16
 GLOBAL| Orthonormality check for eigenvectors                          DISABLED
 GLOBAL| Matrix multiplication library                                     COSMA
 GLOBAL| All-to-all communication in single precision                          F
 GLOBAL| FFTs using library dependent lengths                                  F
 GLOBAL| Grid backend                                                       AUTO
 GLOBAL| Global print level                                               MEDIUM
 GLOBAL| MPI I/O enabled                                                       T
 GLOBAL| Total number of message passing processes                           128
 GLOBAL| Number of threads for this process                                    4
 GLOBAL| This output is from process                                           0
 GLOBAL| OpenMP stack size per thread (OMP_STACKSIZE)                    default
 GLOBAL| CPU model name                          AMD EPYC 7763 64-Core Processor
 GLOBAL| CPUID                                                              1002

 MEMORY| system memory details [Kb]
 MEMORY|                        rank 0           min           max       average
 MEMORY| MemTotal            263899264     263899260     263899264     263899262
 MEMORY| MemFree             244688388     244040548     248058820     245215849
 MEMORY| Buffers                152768         59748        240648        162675
 MEMORY| Cached                5686720       4582692       7041924       5809576
 MEMORY| Slab                  2567984       2004740       2727208       2378152
 MEMORY| SReclaimable           811584        375952        819648        689541
 MEMORY| MemLikelyFree       251339460     251019512     253452240     251877641


 *** Fundamental physical constants (SI units) ***

 *** Literature: B. J. Mohr and B. N. Taylor,
 ***             CODATA recommended values of the fundamental physical
 ***             constants: 2006, Web Version 5.1
 ***             http://physics.nist.gov/constants

 Speed of light in vacuum [m/s]                             2.99792458000000E+08
 Magnetic constant or permeability of vacuum [N/A**2]       1.25663706143592E-06
 Electric constant or permittivity of vacuum [F/m]          8.85418781762039E-12
 Planck constant (h) [J*s]                                  6.62606896000000E-34
 Planck constant (h-bar) [J*s]                              1.05457162825177E-34
 Elementary charge [C]                                      1.60217648700000E-19
 Electron mass [kg]                                         9.10938215000000E-31
 Electron g factor [ ]                                     -2.00231930436220E+00
 Proton mass [kg]                                           1.67262163700000E-27
 Fine-structure constant                                    7.29735253760000E-03
 Rydberg constant [1/m]                                     1.09737315685270E+07
 Avogadro constant [1/mol]                                  6.02214179000000E+23
 Boltzmann constant [J/K]                                   1.38065040000000E-23
 Atomic mass unit [kg]                                      1.66053878200000E-27
 Bohr radius [m]                                            5.29177208590000E-11

 *** Conversion factors ***

 [u] -> [a.u.]                                              1.82288848426455E+03
 [Angstrom] -> [Bohr] = [a.u.]                              1.88972613288564E+00
 [a.u.] = [Bohr] -> [Angstrom]                              5.29177208590000E-01
 [a.u.] -> [s]                                              2.41888432650478E-17
 [a.u.] -> [fs]                                             2.41888432650478E-02
 [a.u.] -> [J]                                              4.35974393937059E-18
 [a.u.] -> [N]                                              8.23872205491840E-08
 [a.u.] -> [K]                                              3.15774647902944E+05
 [a.u.] -> [kJ/mol]                                         2.62549961709828E+03
 [a.u.] -> [kcal/mol]                                       6.27509468713739E+02
 [a.u.] -> [Pa]                                             2.94210107994716E+13
 [a.u.] -> [bar]                                            2.94210107994716E+08
 [a.u.] -> [atm]                                            2.90362800883016E+08
 [a.u.] -> [eV]                                             2.72113838565563E+01
 [a.u.] -> [Hz]                                             6.57968392072181E+15
 [a.u.] -> [1/cm] (wave numbers)                            2.19474631370540E+05
 [a.u./Bohr**2] -> [1/cm]                                   5.14048714338585E+03
 

 CELL_TOP| Volume [angstrom^3]:                                     27000.000000
 CELL_TOP| Vector a [angstrom    30.000     0.000     0.000   |a| =    30.000000
 CELL_TOP| Vector b [angstrom     0.000    30.000     0.000   |b| =    30.000000
 CELL_TOP| Vector c [angstrom     0.000     0.000    30.000   |c| =    30.000000
 CELL_TOP| Angle (b,c), alpha [degree]:                                90.000000
 CELL_TOP| Angle (a,c), beta  [degree]:                                90.000000
 CELL_TOP| Angle (a,b), gamma [degree]:                                90.000000
 CELL_TOP| Numerically orthorhombic:                                         YES
 CELL_TOP| Periodicity                                                      NONE

 GENERATE|  Preliminary Number of Bonds generated:                             0
 GENERATE|  Achieved consistency in connectivity generation.

 CELL| Volume [angstrom^3]:                                         27000.000000
 CELL| Vector a [angstrom]:      30.000     0.000     0.000   |a| =    30.000000
 CELL| Vector b [angstrom]:       0.000    30.000     0.000   |b| =    30.000000
 CELL| Vector c [angstrom]:       0.000     0.000    30.000   |c| =    30.000000
 CELL| Angle (b,c), alpha [degree]:                                    90.000000
 CELL| Angle (a,c), beta  [degree]:                                    90.000000
 CELL| Angle (a,b), gamma [degree]:                                    90.000000
 CELL| Numerically orthorhombic:                                             YES
 CELL| Periodicity                                                          NONE

 CELL_REF| Volume [angstrom^3]:                                     27000.000000
 CELL_REF| Vector a [angstrom    30.000     0.000     0.000   |a| =    30.000000
 CELL_REF| Vector b [angstrom     0.000    30.000     0.000   |b| =    30.000000
 CELL_REF| Vector c [angstrom     0.000     0.000    30.000   |c| =    30.000000
 CELL_REF| Angle (b,c), alpha [degree]:                                90.000000
 CELL_REF| Angle (a,c), beta  [degree]:                                90.000000
 CELL_REF| Angle (a,b), gamma [degree]:                                90.000000
 CELL_REF| Numerically orthorhombic:                                         YES
 CELL_REF| Periodicity                                                      NONE

 *******************************************************************************
 *******************************************************************************
 **                                                                           **
 **     #####                         ##              ##                      **
 **    ##   ##            ##          ##              ##                      **
 **   ##     ##                       ##            ######                    **
 **   ##     ##  ##   ##  ##   #####  ##  ##   ####   ##    #####    #####    **
 **   ##     ##  ##   ##  ##  ##      ## ##   ##      ##   ##   ##  ##   ##   **
 **   ##  ## ##  ##   ##  ##  ##      ####     ###    ##   ######   ######    **
 **    ##  ###   ##   ##  ##  ##      ## ##      ##   ##   ##       ##        **
 **     #######   #####   ##   #####  ##  ##  ####    ##    #####   ##        **
 **           ##                                                    ##        **
 **                                                                           **
 **                                                ... make the atoms dance   **
 **                                                                           **
 **            Copyright (C) by CP2K developers group (2000-2025)             **
 **                      J. Chem. Phys. 152, 194103 (2020)                    **
 **                                                                           **
 *******************************************************************************

 DFT| Spin restricted Kohn-Sham (RKS) calculation                            RKS
 DFT| Multiplicity                                                             1
 DFT| Number of spin states                                                    1
 DFT| Charge                                                                   0
 DFT| Self-interaction correction (SIC)                                       NO
 DFT| Cutoffs: density                                              1.000000E-10
 DFT|          gradient                                             1.000000E-10
 DFT|          tau                                                  1.000000E-10
 DFT|          cutoff_smoothing_range                               0.000000E+00
 DFT| XC density smoothing                                                  NONE
 DFT| XC derivatives                                                          PW

 FUNCTIONAL| PBE:
 FUNCTIONAL| J.P.Perdew, K.Burke, M.Ernzerhof, Phys. Rev. Letter, vol. 77, n 18,
 FUNCTIONAL|  pp. 3865-3868, (1996)sx=0.750sc=1.000{spin unpolarized}           


 QS| Method:                                                                GAPW
 QS| Density plane wave grid type                        NON-SPHERICAL FULLSPACE
 QS| Number of grid levels:                                                    4
 QS| Density cutoff [a.u.]:                                                250.0
 QS| Multi grid cutoff [a.u.]: 1) grid level                               250.0
 QS|                           2) grid level                                83.3
 QS|                           3) grid level                                27.8
 QS|                           4) grid level                                 9.3
 QS| Grid level progression factor:                                          3.0
 QS| Relative density cutoff [a.u.]:                                        50.0
 QS| Interaction thresholds: eps_pgf_orb:                                1.0E-12
 QS|                         eps_filter_matrix:                          0.0E+00
 QS|                         eps_core_charge:                            1.0E-14
 QS|                         eps_rho_gspace:                             1.0E-12
 QS|                         eps_rho_rspace:                             1.0E-12
 QS|                         eps_gvg_rspace:                             1.0E-06
 QS|                         eps_ppl:                                    1.0E-02
 QS|                         eps_ppnl:                                   1.0E-08
 QS| GAPW|      One center basis from orbital basis primitives
 QS| GAPW|                   eps_fit:                                    1.0E-04
 QS| GAPW|                   eps_iso:                                    1.0E-12
 QS| GAPW|                   eps_svd:                                    1.0E-08
 QS| GAPW|                   eps_cpc:                                    1.0E-12
 QS| GAPW|   atom-r-grid: quadrature:                                     GC_LOG
 QS| GAPW|      atom-s-grid:  max l :                                          8
 QS| GAPW|      max_l_rho0 :                                                   2


 ATOMIC KIND INFORMATION

  1. Atomic kind: O                                     Number of atoms:       2

     Orbital Basis Set                                        aug-TZVP-MOLOPT-ae

       Number of orbital shell sets:                                           2
       Number of orbital shells:                                              16
       Number of primitive Cartesian functions:                               13
       Number of Cartesian basis functions:                                   71
       Number of spherical basis functions:                                   56
       Norm type:                                                              2

       Normalised Cartesian orbitals:

                        Set   Shell   Orbital            Exponent    Coefficient

                          1       1    1s                0.050000       0.000000
                                                         0.148931       0.008771
                                                         0.454433       0.026241
                                                         1.335408       0.005818
                                                         4.395399       0.718493
                                                        12.309450       2.903007
                                                        62.914956       1.320675

                          1       2    2s                0.050000       0.000000
                                                         0.148931       0.036066
                                                         0.454433       0.073646
                                                         1.335408       0.667362
                                                         4.395399      -0.111917
                                                        12.309450      -0.053902
                                                        62.914956      -0.747743

                          1       3    3s                0.050000       0.000000
                                                         0.148931       0.072341
                                                         0.454433       0.339134
                                                         1.335408      -0.296204
                                                         4.395399      -0.066370
                                                        12.309450      -0.509964
                                                        62.914956       0.182030

                          1       4    4s                0.050000       0.000000
                                                         0.148931       0.257390
                                                         0.454433      -0.327789
                                                         1.335408      -0.186757
                                                         4.395399      -0.014958
                                                        12.309450      -0.201401
                                                        62.914956       1.590188

                          1       5    5s                0.050000       0.095896
                                                         0.148931      -0.062439
                                                         0.454433       0.011784
                                                         1.335408      -0.100924
                                                         4.395399       0.000000
                                                        12.309450       0.000000
                                                        62.914956       0.000000

                          1       6    2px               0.050000       0.000000
                                                         0.148931       0.002211
                                                         0.454433      -0.015509
                                                         1.335408       1.487193
                                                         4.395399       2.867225
                                                        12.309450       3.872733
                                                        62.914956     -23.794765
                          1       6    2py               0.050000       0.000000
                                                         0.148931       0.002211
                                                         0.454433      -0.015509
                                                         1.335408       1.487193
                                                         4.395399       2.867225
                                                        12.309450       3.872733
                                                        62.914956     -23.794765
                          1       6    2pz               0.050000       0.000000
                                                         0.148931       0.002211
                                                         0.454433      -0.015509
                                                         1.335408       1.487193
                                                         4.395399       2.867225
                                                        12.309450       3.872733
                                                        62.914956     -23.794765

                          1       7    3px               0.050000       0.000000
                                                         0.148931       0.008518
                                                         0.454433       0.481961
                                                         1.335408       0.085170
                                                         4.395399       0.441215
                                                        12.309450      -1.837950
                                                        62.914956      36.698597
                          1       7    3py               0.050000       0.000000
                                                         0.148931       0.008518
                                                         0.454433       0.481961
                                                         1.335408       0.085170
                                                         4.395399       0.441215
                                                        12.309450      -1.837950
                                                        62.914956      36.698597
                          1       7    3pz               0.050000       0.000000
                                                         0.148931       0.008518
                                                         0.454433       0.481961
                                                         1.335408       0.085170
                                                         4.395399       0.441215
                                                        12.309450      -1.837950
                                                        62.914956      36.698597

                          1       8    4px               0.050000       0.000000
                                                         0.148931       0.138320
                                                         0.454433      -0.034294
                                                         1.335408      -0.042535
                                                         4.395399      -0.295522
                                                        12.309450       0.600610
                                                        62.914956     -10.152534
                          1       8    4py               0.050000       0.000000
                                                         0.148931       0.138320
                                                         0.454433      -0.034294
                                                         1.335408      -0.042535
                                                         4.395399      -0.295522
                                                        12.309450       0.600610
                                                        62.914956     -10.152534
                          1       8    4pz               0.050000       0.000000
                                                         0.148931       0.138320
                                                         0.454433      -0.034294
                                                         1.335408      -0.042535
                                                         4.395399      -0.295522
                                                        12.309450       0.600610
                                                        62.914956     -10.152534

                          1       9    5px               0.050000      -0.000964
                                                         0.148931       0.027417
                                                         0.454433       0.328542
                                                         1.335408       0.651611
                                                         4.395399       0.000000
                                                        12.309450       0.000000
                                                        62.914956       0.000000
                          1       9    5py               0.050000      -0.000964
                                                         0.148931       0.027417
                                                         0.454433       0.328542
                                                         1.335408       0.651611
                                                         4.395399       0.000000
                                                        12.309450       0.000000
                                                        62.914956       0.000000
                          1       9    5pz               0.050000      -0.000964
                                                         0.148931       0.027417
                                                         0.454433       0.328542
                                                         1.335408       0.651611
                                                         4.395399       0.000000
                                                        12.309450       0.000000
                                                        62.914956       0.000000

                          1      10    3dx2              0.050000       0.000000
                                                         0.148931       0.011799
                                                         0.454433       0.037044
                                                         1.335408       1.177796
                                                         4.395399      13.187048
                                                        12.309450      -3.718320
                                                        62.914956     245.407483
                          1      10    3dxy              0.050000       0.000000
                                                         0.148931       0.020436
                                                         0.454433       0.064161
                                                         1.335408       2.040003
                                                         4.395399      22.840637
                                                        12.309450      -6.440319
                                                        62.914956     425.058229
                          1      10    3dxz              0.050000       0.000000
                                                         0.148931       0.020436
                                                         0.454433       0.064161
                                                         1.335408       2.040003
                                                         4.395399      22.840637
                                                        12.309450      -6.440319
                                                        62.914956     425.058229
                          1      10    3dy2              0.050000       0.000000
                                                         0.148931       0.011799
                                                         0.454433       0.037044
                                                         1.335408       1.177796
                                                         4.395399      13.187048
                                                        12.309450      -3.718320
                                                        62.914956     245.407483
                          1      10    3dyz              0.050000       0.000000
                                                         0.148931       0.020436
                                                         0.454433       0.064161
                                                         1.335408       2.040003
                                                         4.395399      22.840637
                                                        12.309450      -6.440319
                                                        62.914956     425.058229
                          1      10    3dz2              0.050000       0.000000
                                                         0.148931       0.011799
                                                         0.454433       0.037044
                                                         1.335408       1.177796
                                                         4.395399      13.187048
                                                        12.309450      -3.718320
                                                        62.914956     245.407483

                          1      11    4dx2              0.050000       0.000000
                                                         0.148931      -0.006399
                                                         0.454433       0.341143
                                                         1.335408       1.062793
                                                         4.395399      -7.656182
                                                        12.309450       6.262545
                                                        62.914956    -198.939864
                          1      11    4dxy              0.050000       0.000000
                                                         0.148931      -0.011084
                                                         0.454433       0.590877
                                                         1.335408       1.840811
                                                         4.395399     -13.260897
                                                        12.309450      10.847045
                                                        62.914956    -344.573952
                          1      11    4dxz              0.050000       0.000000
                                                         0.148931      -0.011084
                                                         0.454433       0.590877
                                                         1.335408       1.840811
                                                         4.395399     -13.260897
                                                        12.309450      10.847045
                                                        62.914956    -344.573952
                          1      11    4dy2              0.050000       0.000000
                                                         0.148931      -0.006399
                                                         0.454433       0.341143
                                                         1.335408       1.062793
                                                         4.395399      -7.656182
                                                        12.309450       6.262545
                                                        62.914956    -198.939864
                          1      11    4dyz              0.050000       0.000000
                                                         0.148931      -0.011084
                                                         0.454433       0.590877
                                                         1.335408       1.840811
                                                         4.395399     -13.260897
                                                        12.309450      10.847045
                                                        62.914956    -344.573952
                          1      11    4dz2              0.050000       0.000000
                                                         0.148931      -0.006399
                                                         0.454433       0.341143
                                                         1.335408       1.062793
                                                         4.395399      -7.656182
                                                        12.309450       6.262545
                                                        62.914956    -198.939864

                          1      12    5dx2              0.050000      -0.000167
                                                         0.148931       0.000910
                                                         0.454433       0.391605
                                                         1.335408       0.205296
                                                         4.395399       0.000000
                                                        12.309450       0.000000
                                                        62.914956       0.000000
                          1      12    5dxy              0.050000      -0.000290
                                                         0.148931       0.001577
                                                         0.454433       0.678279
                                                         1.335408       0.355584
                                                         4.395399       0.000000
                                                        12.309450       0.000000
                                                        62.914956       0.000000
                          1      12    5dxz              0.050000      -0.000290
                                                         0.148931       0.001577
                                                         0.454433       0.678279
                                                         1.335408       0.355584
                                                         4.395399       0.000000
                                                        12.309450       0.000000
                                                        62.914956       0.000000
                          1      12    5dy2              0.050000      -0.000167
                                                         0.148931       0.000910
                                                         0.454433       0.391605
                                                         1.335408       0.205296
                                                         4.395399       0.000000
                                                        12.309450       0.000000
                                                        62.914956       0.000000
                          1      12    5dyz              0.050000      -0.000290
                                                         0.148931       0.001577
                                                         0.454433       0.678279
                                                         1.335408       0.355584
                                                         4.395399       0.000000
                                                        12.309450       0.000000
                                                        62.914956       0.000000
                          1      12    5dz2              0.050000      -0.000167
                                                         0.148931       0.000910
                                                         0.454433       0.391605
                                                         1.335408       0.205296
                                                         4.395399       0.000000
                                                        12.309450       0.000000
                                                        62.914956       0.000000

                          1      13    4fx3              0.050000       0.000000
                                                         0.148931       0.001654
                                                         0.454433       0.066745
                                                         1.335408       2.406605
                                                         4.395399      -5.031344
                                                        12.309450      16.622131
                                                        62.914956       4.775823
                          1      13    4fx2y             0.050000       0.000000
                                                         0.148931       0.003699
                                                         0.454433       0.149247
                                                         1.335408       5.381333
                                                         4.395399     -11.250428
                                                        12.309450      37.168214
                                                        62.914956      10.679064
                          1      13    4fx2z             0.050000       0.000000
                                                         0.148931       0.003699
                                                         0.454433       0.149247
                                                         1.335408       5.381333
                                                         4.395399     -11.250428
                                                        12.309450      37.168214
                                                        62.914956      10.679064
                          1      13    4fxy2             0.050000       0.000000
                                                         0.148931       0.003699
                                                         0.454433       0.149247
                                                         1.335408       5.381333
                                                         4.395399     -11.250428
                                                        12.309450      37.168214
                                                        62.914956      10.679064
                          1      13    4fxyz             0.050000       0.000000
                                                         0.148931       0.006406
                                                         0.454433       0.258503
                                                         1.335408       9.320743
                                                         4.395399     -19.486313
                                                        12.309450      64.377235
                                                        62.914956      18.496681
                          1      13    4fxz2             0.050000       0.000000
                                                         0.148931       0.003699
                                                         0.454433       0.149247
                                                         1.335408       5.381333
                                                         4.395399     -11.250428
                                                        12.309450      37.168214
                                                        62.914956      10.679064
                          1      13    4fy3              0.050000       0.000000
                                                         0.148931       0.001654
                                                         0.454433       0.066745
                                                         1.335408       2.406605
                                                         4.395399      -5.031344
                                                        12.309450      16.622131
                                                        62.914956       4.775823
                          1      13    4fy2z             0.050000       0.000000
                                                         0.148931       0.003699
                                                         0.454433       0.149247
                                                         1.335408       5.381333
                                                         4.395399     -11.250428
                                                        12.309450      37.168214
                                                        62.914956      10.679064
                          1      13    4fyz2             0.050000       0.000000
                                                         0.148931       0.003699
                                                         0.454433       0.149247
                                                         1.335408       5.381333
                                                         4.395399     -11.250428
                                                        12.309450      37.168214
                                                        62.914956      10.679064
                          1      13    4fz3              0.050000       0.000000
                                                         0.148931       0.001654
                                                         0.454433       0.066745
                                                         1.335408       2.406605
                                                         4.395399      -5.031344
                                                        12.309450      16.622131
                                                        62.914956       4.775823

                          1      14    5fx3              0.050000      -0.000035
                                                         0.148931       0.000216
                                                         0.454433       0.256015
                                                         1.335408      -0.160820
                                                         4.395399       0.000000
                                                        12.309450       0.000000
                                                        62.914956       0.000000
                          1      14    5fx2y             0.050000      -0.000077
                                                         0.148931       0.000483
                                                         0.454433       0.572467
                                                         1.335408      -0.359605
                                                         4.395399       0.000000
                                                        12.309450       0.000000
                                                        62.914956       0.000000
                          1      14    5fx2z             0.050000      -0.000077
                                                         0.148931       0.000483
                                                         0.454433       0.572467
                                                         1.335408      -0.359605
                                                         4.395399       0.000000
                                                        12.309450       0.000000
                                                        62.914956       0.000000
                          1      14    5fxy2             0.050000      -0.000077
                                                         0.148931       0.000483
                                                         0.454433       0.572467
                                                         1.335408      -0.359605
                                                         4.395399       0.000000
                                                        12.309450       0.000000
                                                        62.914956       0.000000
                          1      14    5fxyz             0.050000      -0.000134
                                                         0.148931       0.000837
                                                         0.454433       0.991542
                                                         1.335408      -0.622854
                                                         4.395399       0.000000
                                                        12.309450       0.000000
                                                        62.914956       0.000000
                          1      14    5fxz2             0.050000      -0.000077
                                                         0.148931       0.000483
                                                         0.454433       0.572467
                                                         1.335408      -0.359605
                                                         4.395399       0.000000
                                                        12.309450       0.000000
                                                        62.914956       0.000000
                          1      14    5fy3              0.050000      -0.000035
                                                         0.148931       0.000216
                                                         0.454433       0.256015
                                                         1.335408      -0.160820
                                                         4.395399       0.000000
                                                        12.309450       0.000000
                                                        62.914956       0.000000
                          1      14    5fy2z             0.050000      -0.000077
                                                         0.148931       0.000483
                                                         0.454433       0.572467
                                                         1.335408      -0.359605
                                                         4.395399       0.000000
                                                        12.309450       0.000000
                                                        62.914956       0.000000
                          1      14    5fyz2             0.050000      -0.000077
                                                         0.148931       0.000483
                                                         0.454433       0.572467
                                                         1.335408      -0.359605
                                                         4.395399       0.000000
                                                        12.309450       0.000000
                                                        62.914956       0.000000
                          1      14    5fz3              0.050000      -0.000035
                                                         0.148931       0.000216
                                                         0.454433       0.256015
                                                         1.335408      -0.160820
                                                         4.395399       0.000000
                                                        12.309450       0.000000
                                                        62.914956       0.000000

                          1      15    5gx4              0.050000       0.000008
                                                         0.148931       0.000769
                                                         0.454433       0.118509
                                                         1.335408       0.001274
                                                         4.395399       0.000000
                                                        12.309450       0.000000
                                                        62.914956       0.000000
                          1      15    5gx3y             0.050000       0.000022
                                                         0.148931       0.002034
                                                         0.454433       0.313545
                                                         1.335408       0.003370
                                                         4.395399       0.000000
                                                        12.309450       0.000000
                                                        62.914956       0.000000
                          1      15    5gx3z             0.050000       0.000022
                                                         0.148931       0.002034
                                                         0.454433       0.313545
                                                         1.335408       0.003370
                                                         4.395399       0.000000
                                                        12.309450       0.000000
                                                        62.914956       0.000000
                          1      15    5gx2y2            0.050000       0.000029
                                                         0.148931       0.002626
                                                         0.454433       0.404785
                                                         1.335408       0.004351
                                                         4.395399       0.000000
                                                        12.309450       0.000000
                                                        62.914956       0.000000
                          1      15    5gx2yz            0.050000       0.000050
                                                         0.148931       0.004548
                                                         0.454433       0.701109
                                                         1.335408       0.007536
                                                         4.395399       0.000000
                                                        12.309450       0.000000
                                                        62.914956       0.000000
                          1      15    5gx2z2            0.050000       0.000029
                                                         0.148931       0.002626
                                                         0.454433       0.404785
                                                         1.335408       0.004351
                                                         4.395399       0.000000
                                                        12.309450       0.000000
                                                        62.914956       0.000000
                          1      15    5gxy3             0.050000       0.000022
                                                         0.148931       0.002034
                                                         0.454433       0.313545
                                                         1.335408       0.003370
                                                         4.395399       0.000000
                                                        12.309450       0.000000
                                                        62.914956       0.000000
                          1      15    5gxy2z            0.050000       0.000050
                                                         0.148931       0.004548
                                                         0.454433       0.701109
                                                         1.335408       0.007536
                                                         4.395399       0.000000
                                                        12.309450       0.000000
                                                        62.914956       0.000000
                          1      15    5gxyz2            0.050000       0.000050
                                                         0.148931       0.004548
                                                         0.454433       0.701109
                                                         1.335408       0.007536
                                                         4.395399       0.000000
                                                        12.309450       0.000000
                                                        62.914956       0.000000
                          1      15    5gxz3             0.050000       0.000022
                                                         0.148931       0.002034
                                                         0.454433       0.313545
                                                         1.335408       0.003370
                                                         4.395399       0.000000
                                                        12.309450       0.000000
                                                        62.914956       0.000000
                          1      15    5gy4              0.050000       0.000008
                                                         0.148931       0.000769
                                                         0.454433       0.118509
                                                         1.335408       0.001274
                                                         4.395399       0.000000
                                                        12.309450       0.000000
                                                        62.914956       0.000000
                          1      15    5gy3z             0.050000       0.000022
                                                         0.148931       0.002034
                                                         0.454433       0.313545
                                                         1.335408       0.003370
                                                         4.395399       0.000000
                                                        12.309450       0.000000
                                                        62.914956       0.000000
                          1      15    5gy2z2            0.050000       0.000029
                                                         0.148931       0.002626
                                                         0.454433       0.404785
                                                         1.335408       0.004351
                                                         4.395399       0.000000
                                                        12.309450       0.000000
                                                        62.914956       0.000000
                          1      15    5gyz3             0.050000       0.000022
                                                         0.148931       0.002034
                                                         0.454433       0.313545
                                                         1.335408       0.003370
                                                         4.395399       0.000000
                                                        12.309450       0.000000
                                                        62.914956       0.000000
                          1      15    5gz4              0.050000       0.000008
                                                         0.148931       0.000769
                                                         0.454433       0.118509
                                                         1.335408       0.001274
                                                         4.395399       0.000000
                                                        12.309450       0.000000
                                                        62.914956       0.000000

                          2       1    1s            27032.341107       0.827485
                                                      4052.439160       2.350354
                                                       922.349653       2.989583
                                                       261.277359       5.859993
                                                        85.309424       4.920023
                                                        31.080802       6.525964

     RI Auxiliary Basis Set             RI_aug-TZVP-MOLOPT-ae_N_RI_119_s_p_d_f_g

       Number of orbital shell sets:                                          27
       Number of orbital shells:                                              27
       Number of primitive Cartesian functions:                               27
       Number of Cartesian basis functions:                                  162
       Number of spherical basis functions:                                  119
       Norm type:                                                              2

       Normalised Cartesian orbitals:

                        Set   Shell   Orbital            Exponent    Coefficient

                          1       1   14dx2              0.303628       0.204413
                          1       1   14dxy              0.303628       0.354054
                          1       1   14dxz              0.303628       0.354054
                          1       1   14dy2              0.303628       0.204413
                          1       1   14dyz              0.303628       0.354054
                          1       1   14dz2              0.303628       0.204413

                          2       1    1s                0.313134       0.298337

                          3       1    8px               0.481155       0.571211
                          3       1    8py               0.481155       0.571211
                          3       1    8pz               0.481155       0.571211

                          4       1   15dx2              0.569752       0.614978
                          4       1   15dxy              0.569752       1.065173
                          4       1   15dxz              0.569752       1.065173
                          4       1   15dy2              0.569752       0.614978
                          4       1   15dyz              0.569752       1.065173
                          4       1   15dz2              0.569752       0.614978

                          5       1   20fx3              0.618494       0.499412
                          5       1   20fx2y             0.618494       1.116720
                          5       1   20fx2z             0.618494       1.116720
                          5       1   20fxy2             0.618494       1.116720
                          5       1   20fxyz             0.618494       1.934216
                          5       1   20fxz2             0.618494       1.116720
                          5       1   20fy3              0.618494       0.499412
                          5       1   20fy2z             0.618494       1.116720
                          5       1   20fyz2             0.618494       1.116720
                          5       1   20fz3              0.618494       0.499412

                          6       1   25gx4              0.693241       0.406319
                          6       1   25gx3y             0.693241       1.075020
                          6       1   25gx3z             0.693241       1.075020
                          6       1   25gx2y2            0.693241       1.387844
                          6       1   25gx2yz            0.693241       2.403817
                          6       1   25gx2z2            0.693241       1.387844
                          6       1   25gxy3             0.693241       1.075020
                          6       1   25gxy2z            0.693241       2.403817
                          6       1   25gxyz2            0.693241       2.403817
                          6       1   25gxz3             0.693241       1.075020
                          6       1   25gy4              0.693241       0.406319
                          6       1   25gy3z             0.693241       1.075020
                          6       1   25gy2z2            0.693241       1.387844
                          6       1   25gyz3             0.693241       1.075020
                          6       1   25gz4              0.693241       0.406319

                          7       1    2s                0.796361       0.600818

                          8       1    9px               0.914696       1.275076
                          8       1    9py               0.914696       1.275076
                          8       1    9pz               0.914696       1.275076

                          9       1   27hx5              0.922662       0.571128
                          9       1   27hx4y             0.922662       1.713383
                          9       1   27hx4z             0.922662       1.713383
                          9       1   27hx3y2            0.922662       2.617235
                          9       1   27hx3yz            0.922662       4.533184
                          9       1   27hx3z2            0.922662       2.617235
                          9       1   27hx2y3            0.922662       2.617235
                          9       1   27hx2y2z           0.922662       5.852316
                          9       1   27hx2yz2           0.922662       5.852316
                          9       1   27hx2z3            0.922662       2.617235
                          9       1   27hxy4             0.922662       1.713383
                          9       1   27hxy3z            0.922662       4.533184
                          9       1   27hxy2z2           0.922662       5.852316
                          9       1   27hxyz3            0.922662       4.533184
                          9       1   27hxz4             0.922662       1.713383
                          9       1   27hy5              0.922662       0.571128
                          9       1   27hy4z             0.922662       1.713383
                          9       1   27hy3z2            0.922662       2.617235
                          9       1   27hy2z3            0.922662       2.617235
                          9       1   27hyz4             0.922662       1.713383
                          9       1   27hz5              0.922662       0.571128

                         10       1   21fx3              1.022133       1.546487
                         10       1   21fx2y             1.022133       3.458050
                         10       1   21fx2z             1.022133       3.458050
                         10       1   21fxy2             1.022133       3.458050
                         10       1   21fxyz             1.022133       5.989519
                         10       1   21fxz2             1.022133       3.458050
                         10       1   21fy3              1.022133       1.546487
                         10       1   21fy2z             1.022133       3.458050
                         10       1   21fyz2             1.022133       3.458050
                         10       1   21fz3              1.022133       1.546487

                         11       1   16dx2              1.083996       1.895432
                         11       1   16dxy              1.083996       3.282985
                         11       1   16dxz              1.083996       3.282985
                         11       1   16dy2              1.083996       1.895432
                         11       1   16dyz              1.083996       3.282985
                         11       1   16dz2              1.083996       1.895432

                         12       1    3s                1.262532       0.848871

                         13       1   22fx3              1.716659       4.965850
                         13       1   22fx2y             1.716659      11.103979
                         13       1   22fx2z             1.716659      11.103979
                         13       1   22fxy2             1.716659      11.103979
                         13       1   22fxyz             1.716659      19.232655
                         13       1   22fxz2             1.716659      11.103979
                         13       1   22fy3              1.716659       4.965850
                         13       1   22fy2z             1.716659      11.103979
                         13       1   22fyz2             1.716659      11.103979
                         13       1   22fz3              1.716659       4.965850

                         14       1   17dx2              2.056765       5.814104
                         14       1   17dxy              2.056765      10.070323
                         14       1   17dxz              2.056765      10.070323
                         14       1   17dy2              2.056765       5.814104
                         14       1   17dyz              2.056765      10.070323
                         14       1   17dz2              2.056765       5.814104

                         15       1   10px               2.090735       3.583552
                         15       1   10py               2.090735       3.583552
                         15       1   10pz               2.090735       3.583552

                         16       1   26gx4              2.179110       9.477706
                         16       1   26gx3y             2.179110      25.075652
                         16       1   26gx3z             2.179110      25.075652
                         16       1   26gx2y2            2.179110      32.372528
                         16       1   26gx2yz            2.179110      56.070863
                         16       1   26gx2z2            2.179110      32.372528
                         16       1   26gxy3             2.179110      25.075652
                         16       1   26gxy2z            2.179110      56.070863
                         16       1   26gxyz2            2.179110      56.070863
                         16       1   26gxz3             2.179110      25.075652
                         16       1   26gy4              2.179110       9.477706
                         16       1   26gy3z             2.179110      25.075652
                         16       1   26gy2z2            2.179110      32.372528
                         16       1   26gyz3             2.179110      25.075652
                         16       1   26gz4              2.179110       9.477706

                         17       1   23fx3              2.884307      15.960550
                         17       1   23fx2y             2.884307      35.688875
                         17       1   23fx2z             2.884307      35.688875
                         17       1   23fxy2             2.884307      35.688875
                         17       1   23fxyz             2.884307      61.814944
                         17       1   23fxz2             2.884307      35.688875
                         17       1   23fy3              2.884307      15.960550
                         17       1   23fy2z             2.884307      35.688875
                         17       1   23fyz2             2.884307      35.688875
                         17       1   23fz3              2.884307      15.960550

                         18       1    4s                3.454747       1.806019

                         19       1   18dx2              3.924565      18.011281
                         19       1   18dxy              3.924565      31.196454
                         19       1   18dxz              3.924565      31.196454
                         19       1   18dy2              3.924565      18.011281
                         19       1   18dyz              3.924565      31.196454
                         19       1   18dz2              3.924565      18.011281

                         20       1   24fx3              5.093807      57.385216
                         20       1   24fx2y             5.093807     128.317245
                         20       1   24fx2z             5.093807     128.317245
                         20       1   24fxy2             5.093807     128.317245
                         20       1   24fxyz             5.093807     222.251987
                         20       1   24fxz2             5.093807     128.317245
                         20       1   24fy3              5.093807      57.385216
                         20       1   24fy2z             5.093807     128.317245
                         20       1   24fyz2             5.093807     128.317245
                         20       1   24fz3              5.093807      57.385216

                         21       1   11px               5.255486      11.342431
                         21       1   11py               5.255486      11.342431
                         21       1   11pz               5.255486      11.342431

                         22       1   19dx2              7.665259      58.120780
                         22       1   19dxy              7.665259     100.668144
                         22       1   19dxz              7.665259     100.668144
                         22       1   19dy2              7.665259      58.120780
                         22       1   19dyz              7.665259     100.668144
                         22       1   19dz2              7.665259      58.120780

                         23       1    5s               11.971140       4.586820

                         24       1   12px              12.834518      34.626975
                         24       1   12py              12.834518      34.626975
                         24       1   12pz              12.834518      34.626975

                         25       1   13px              30.936808     104.000269
                         25       1   13py              30.936808     104.000269
                         25       1   13pz              30.936808     104.000269

                         26       1    6s               41.209988      11.592096

                         27       1    7s              127.285581      27.008129

       Atomic covalent radius [Angstrom]:                                  0.730

       Atomic van der Waals radius [Angstrom]:                             1.520

     The atoms of this atomic kind are PAW atoms (GAPW):
       Hard Gaussian function radius:                                      1.512
       Rho0 radius:                                                        1.512
       Maximum GTO radius used for PAW projector construction:            24.566

     GAPW Soft Basis Set                                 aug-TZVP-MOLOPT-ae_soft

       Number of orbital shell sets:                                           2
       Number of orbital shells:                                              16
       Number of primitive Cartesian functions:                                5
       Number of Cartesian basis functions:                                   71
       Number of spherical basis functions:                                   56
       Norm type:                                                              2

       Normalised Cartesian orbitals:

                        Set   Shell   Orbital            Exponent    Coefficient

                          1       1    1s                0.050000       0.000000
                                                         0.148931       0.008771
                                                         0.454433       0.026241
                                                         1.335408       0.005818
                                                         4.395399       0.000000

                          1       2    2s                0.050000       0.000000
                                                         0.148931       0.036066
                                                         0.454433       0.073646
                                                         1.335408       0.667362
                                                         4.395399       0.000000

                          1       3    3s                0.050000       0.000000
                                                         0.148931       0.072341
                                                         0.454433       0.339134
                                                         1.335408      -0.296204
                                                         4.395399       0.000000

                          1       4    4s                0.050000       0.000000
                                                         0.148931       0.257390
                                                         0.454433      -0.327789
                                                         1.335408      -0.186757
                                                         4.395399       0.000000

                          1       5    5s                0.050000       0.095896
                                                         0.148931      -0.062439
                                                         0.454433       0.011784
                                                         1.335408      -0.100924
                                                         4.395399       0.000000

                          1       6    2px               0.050000       0.000000
                                                         0.148931       0.002211
                                                         0.454433      -0.015509
                                                         1.335408       1.487193
                                                         4.395399       0.000000
                          1       6    2py               0.050000       0.000000
                                                         0.148931       0.002211
                                                         0.454433      -0.015509
                                                         1.335408       1.487193
                                                         4.395399       0.000000
                          1       6    2pz               0.050000       0.000000
                                                         0.148931       0.002211
                                                         0.454433      -0.015509
                                                         1.335408       1.487193
                                                         4.395399       0.000000

                          1       7    3px               0.050000       0.000000
                                                         0.148931       0.008518
                                                         0.454433       0.481961
                                                         1.335408       0.085170
                                                         4.395399       0.000000
                          1       7    3py               0.050000       0.000000
                                                         0.148931       0.008518
                                                         0.454433       0.481961
                                                         1.335408       0.085170
                                                         4.395399       0.000000
                          1       7    3pz               0.050000       0.000000
                                                         0.148931       0.008518
                                                         0.454433       0.481961
                                                         1.335408       0.085170
                                                         4.395399       0.000000

                          1       8    4px               0.050000       0.000000
                                                         0.148931       0.138320
                                                         0.454433      -0.034294
                                                         1.335408      -0.042535
                                                         4.395399       0.000000
                          1       8    4py               0.050000       0.000000
                                                         0.148931       0.138320
                                                         0.454433      -0.034294
                                                         1.335408      -0.042535
                                                         4.395399       0.000000
                          1       8    4pz               0.050000       0.000000
                                                         0.148931       0.138320
                                                         0.454433      -0.034294
                                                         1.335408      -0.042535
                                                         4.395399       0.000000

                          1       9    5px               0.050000      -0.000964
                                                         0.148931       0.027417
                                                         0.454433       0.328542
                                                         1.335408       0.651611
                                                         4.395399       0.000000
                          1       9    5py               0.050000      -0.000964
                                                         0.148931       0.027417
                                                         0.454433       0.328542
                                                         1.335408       0.651611
                                                         4.395399       0.000000
                          1       9    5pz               0.050000      -0.000964
                                                         0.148931       0.027417
                                                         0.454433       0.328542
                                                         1.335408       0.651611
                                                         4.395399       0.000000

                          1      10    3dx2              0.050000       0.000000
                                                         0.148931       0.011799
                                                         0.454433       0.037044
                                                         1.335408       1.177796
                                                         4.395399       0.000000
                          1      10    3dxy              0.050000       0.000000
                                                         0.148931       0.020436
                                                         0.454433       0.064161
                                                         1.335408       2.040003
                                                         4.395399       0.000000
                          1      10    3dxz              0.050000       0.000000
                                                         0.148931       0.020436
                                                         0.454433       0.064161
                                                         1.335408       2.040003
                                                         4.395399       0.000000
                          1      10    3dy2              0.050000       0.000000
                                                         0.148931       0.011799
                                                         0.454433       0.037044
[...]
 -------------------------------------------------------------------------------
 
 CP2K version 2025.1 (Development Version), the CP2K developers group (2025).
 CP2K is freely available from https://www.cp2k.org/ .
 
 T. D. Kuehne, M. Iannuzzi, M. Del Ben, V. V. Rybkin, P. Seewald, F. Stein, T. 
 Laino, R. Z. Khaliullin, O. Schuett, F. Schiffmann, D. Golze, J. Wilhelm, S. 
 Chulkov, M. H. Bani-Hashemian, V. Weber, U. Borstnik, M. Taillefumier, A. S. 
 Jakobovits, A. Lazzaro, H. Pabst, T. Mueller, R. Schade, M. Guidon, S. 
 Andermatt, N. Holmberg, G. K. Schenter, A. Hehn, A. Bussy, F. Belleflamme, G. 
 Tabacchi, A. Gloess, M. Lass, I. Bethune, C. J. Mundy, C. Plessl, M. Watkins, 
 J. VandeVondele, M. Krack, J. Hutter.
 J. Chem. Phys. 152, 194103 (2020).
 CP2K: An electronic structure and molecular dynamics software package - 
 Quickstep: Efficient and accurate electronic structure calculations.
 https://doi.org/10.1063/5.0007045

 O. Schuett, P. Messmer, J. Hutter, J. VandeVondele.
 Electronic Structure Calculations on Graphics Processing Units, 173-190 (2016).
 GPU-Accelerated Sparse Matrix-Matrix Multiplication for Linear Scaling Density 
 Functional Theory.
 https://doi.org/10.1002/9781118670712.ch8

 A. Heinecke, G. Henry, M. Hutchinson, H. Pabst.
 Proceedings of Intl. Supercomputing Conference, 981-991 (2016).
 LIBXSMM: Accelerating Small Matrix Multiplications by Runtime Code Generation.
 https://doi.org/10.1109/SC.2016.83

 J. Hutter, M. Iannuzzi, F. Schiffmann, J. VandeVondele.
 WIREs Comput Mol Sci. 4, 15-25 (2014).
 CP2K: atomistic simulations of condensed matter systems.
 https://doi.org/10.1002/wcms.1159

 U. Borstnik, J. VandeVondele, V. Weber, J. Hutter.
 Parallel Comput. 40, 47-58 (2014).
 Sparse matrix multiplication: The distributed block-compressed sparse row 
 library.
 https://doi.org/10.1016/j.parco.2014.03.012

 A. Marek, V. Blum, R. Johanni, V. Havu, B. Lang, T. Auckenthaler, A. Heinecke, 
 H. Bungartz, H. Lederer.
 J. Phys. Condens. Matter 26, 213201 (2014).
 The ELPA library: scalable parallel eigenvalue solutions for electronic 
 structure theory and computational science.
 https://doi.org/10.1088/0953-8984/26/21/213201

 M. Guidon, J. Hutter, J. VandeVondele.
 J. Chem. Theory Comput. 5, 3010-3021 (2009).
 Robust Periodic Hartree-Fock Exchange for Large-Scale Simulations Using 
 Gaussian Basis Sets.
 https://doi.org/10.1021/ct900494g

 M. Guidon, F. Schiffmann, J. Hutter, J. VandeVondele.
 J. Chem. Phys. 128, 214104 (2008).
 Ab initio molecular dynamics using hybrid density functionals.
 https://doi.org/10.1063/1.2931945

 L. Genovese, T. Deutsch, S. Goedecker.
 J. Chem. Phys. 127, 054704 (2007).
 Efficient and accurate three-dimensional Poisson solver for surface problems.
 https://doi.org/10.1063/1.2754685

 J. VandeVondele, J. Hutter.
 J. Chem. Phys. 127, 114105 (2007).
 Gaussian basis sets for accurate calculations on molecular systems in gas and 
 condensed phases.
 https://doi.org/10.1063/1.2770708

 L. Genovese, T. Deutsch, A. Neelov, S. Goedecker, G. Beylkin.
 J. Chem. Phys. 125, 074105 (2006).
 Efficient solution of Poisson's equation with free boundary conditions.
 https://doi.org/10.1063/1.2335442

 M. Iannuzzi, T. Chassaing, T. Wallman, J. Hutter.
 CHIMIA 59, 499-503 (2005).
 Ground and excited state density functional calculations with the Gaussian and 
 augmented-plane-wave method.
 https://doi.org/10.2533/000942905777676164

 M. Frigo, S. G. Johnson.
 Proc. IEEE 93, 216-231 (2005).
 The design and implementation of FFTW3.
 https://doi.org/10.1109/JPROC.2004.840301

 R. L. Martin.
 J. Chem. Phys. 118, 4775-4777 (2003).
 Natural transition orbitals.
 https://doi.org/10.1063/1.1558471

 M. Krack, M. Parrinello.
 Phys. Chem. Chem. Phys. 2, 2105-2112 (2000).
 All-electron ab-initio molecular dynamics.
 https://doi.org/10.1039/b001167n

 G. Lippert, J. Hutter, M. Parrinello.
 Theor. Chem. Acc. 103, 124-140 (1999).
 The Gaussian and augmented-plane-wave density functional method for ab initio 
 molecular dynamics simulations.
 https://doi.org/10.1007/s002140050523

 J. P. Perdew, K. Burke, M. Ernzerhof.
 Phys. Rev. Lett. 77, 3865-3868 (1996).
 Generalized gradient approximation made simple.
 https://doi.org/10.1103/PhysRevLett.77.3865


 -------------------------------------------------------------------------------
 -                                                                             -
 -                                T I M I N G                                  -
 -                                                                             -
 -------------------------------------------------------------------------------
 SUBROUTINE                       CALLS  ASD         SELF TIME        TOTAL TIME
                                MAXIMUM       AVERAGE  MAXIMUM  AVERAGE  MAXIMUM
 CP2K                                 1  1.0    0.014    0.035  900.701  900.712
 qs_energies                          1  2.0    0.000    0.000  900.336  900.346
 scf_env_do_scf                       1  3.0    0.000    0.000  570.344  570.352
 scf_env_do_scf_inner_loop           70  4.0    0.001    0.004  570.344  570.352
 qs_ks_update_qs_env                 70  5.0    0.000    0.001  533.147  533.216
 rebuild_ks_matrix                   70  6.0    0.000    0.000  533.142  533.210
 qs_ks_build_kohn_sham_matrix        70  7.0    0.010    0.013  533.142  533.210
 integrate_four_center              350  9.8   38.200   52.255  474.737  474.795
 hfx_ks_matrix                       70  8.0    0.001    0.002  420.958  420.983
 mp_sync                           1876 11.4  383.538  418.098  383.538  418.098
 integrate_four_center_main         350 10.8    2.701  101.249   21.902  416.231
 integrate_four_center_bin        43267 11.8   19.201  415.878   19.201  415.878
 qs_energies_properties               1  3.0    0.000    0.000  329.178  329.181
 tddfpt                               1  4.0    0.000    0.000  329.178  329.181
 tddfpt_energies                      1  5.0    0.000    0.000  329.150  329.154
 tddfpt_davidson_solver               1  6.0    0.001    0.001  327.556  327.560
 tddfpt_compute_Aop_evects            7  7.0    0.000    0.000  326.658  326.662
 fhxc_kernel                          7  8.0    0.006    0.007  271.614  271.617
 fft_wrap_pw1pw2                   4284 11.0    0.093    0.116  148.872  154.435
 fft_wrap_pw1pw2_250               3018 12.1    4.221    5.246  142.773  150.754
 fft3d_ps                          4284 13.0   28.840   34.740  131.391  139.117
 pw_poisson_solve                   210  9.3    1.355    1.737  120.389  122.743
 tddfpt_apply_coulomb               140  9.0    0.003    0.003  113.469  115.787
 mp_alltoall_z22v                  4284 15.0   95.977  102.131   95.977  102.131
 ps_wavelet_solve                   210 10.3   18.278   22.426   77.028   78.636
 qs_rho_update_rho_low              212  7.7    0.002    0.003   77.717   77.737
 calculate_rho_elec                 212  8.7    0.414    0.523   73.969   73.971
 x_to_yz                           1964 13.7    3.132    4.914   57.267   65.302
 xc_pw_derive                      1263 11.0    0.011    0.013   58.110   59.689
 transfer_pw2rs                    1051 10.9    0.021    0.028   55.755   56.470
 tddfpt_apply_hfx                     7  8.0    0.002    0.002   54.828   54.828
 tddft_hfx_matrix                   280  9.0    0.003    0.004   53.785   53.828
 mp_waitany                       48990 12.7   38.742   52.164   38.742   52.164
 tddfpt_apply_xc_analytic           140  9.0    0.309    0.390   48.850   49.976
 integrate_v_rspace                 210  9.0    0.006    0.007   46.565   47.739
 yz_to_x                           1898 14.3    2.846    3.176   44.654   47.535
 potential_pw2rs                    210 10.0    0.032    0.034   46.375   46.776
 density_rs2pw                      212  9.7    0.010    0.011   43.439   45.473
 prepare_gapw_den                   211  8.7    0.004    0.004   43.957   45.096
 mp_alltoall_d54                    210 11.3   28.089   44.128   28.089   44.128
 transfer_pw2rs_250                 421 11.7    5.290    5.975   38.664   40.937
 xc_pw_divergence                   210 10.7    0.005    0.006   38.923   39.908
 mp_alltoall_d45                    211 11.3   30.888   33.167   30.888   33.167
 grid_collocate_task_list           212  9.7   28.402   30.506   28.402   30.506
 xc_calc_2nd_deriv_analytical       700 10.1    1.671    2.172   28.760   29.375
 calc_screening_functions             1 10.0   27.713   28.178   28.063   28.544
 integrate_vhg0_rspace              210  9.3    0.557    0.644   27.175   27.576
 mp_isend_dm3                      8446 12.7    9.804   27.393    9.804   27.393
 transfer_rs2pw                    1060 10.6    0.034    0.041   26.596   27.382
 mp_sum_d                          4981  7.5   13.285   25.752   13.285   25.752
 qs_vxc_create                       70  8.0    0.001    0.001   25.480   25.497
 xc_vxc_pw_create                    70  9.0    0.237    0.331   25.480   25.496
 calculate_rho_atom                 633  9.7    2.782   23.671    2.782   23.671
 mp_sum_dv                        16007  8.9   21.122   22.050   21.122   22.050
 put_rho0_on_grid                   211  9.7    0.427    0.543   19.410   20.562
 sum_up_and_integrate                70  8.0    0.001    0.002   18.494   18.840
 gaVxcgb_GC                         420  9.7    0.395   17.345    0.395   17.345
 transfer_rs2pw_250                 424 11.6    5.474    5.879   15.661   17.164
 mp_waitall_1                    286416 13.3   10.629   16.464   10.629   16.464
 mp_irecv_dm3                      8446 12.7    1.266   16.275    1.266   16.275
 transfer_pw2rs_90                  210 12.0    0.969    1.107    9.124   14.717
 xc_rho_set_and_dset_create          71 10.0    0.275    0.406   11.910   12.878
 calculate_xc_2nd_deriv_atom        140  9.0    0.052    0.824    0.346   12.702
 fft_wrap_pw1pw2_90                 422 11.8    0.118    0.215    4.997    9.733
 mp_alltoall_d11v                 12740 11.6    6.686    9.536    6.686    9.536
 gspace_mixing                       69  5.0    0.135    0.170    9.111    9.117
 transfer_pw2rs_30                  210 12.0    2.305    2.403    6.982    8.393
 transfer_rs2pw_90                  212 11.7    1.104    1.545    5.456    7.376
 mp_sum_dm                         2631  9.8    5.560    6.944    5.560    6.944
 Vh_1c_gg_integrals                 210  9.3    0.056    1.636    2.580    6.690
 cp2k_distribution_to_z_slices      210 10.3    1.153    1.456    5.760    6.675
 pw_derive                         1893 11.8    5.577    6.181    5.577    6.181
 calculate_vxc_atom                  70  8.0    0.027    0.209    5.992    5.993
 pw_gather_p                       2110 13.3    4.385    5.868    4.385    5.868
 broyden_mixing                      69  6.0    5.017    5.066    5.230    5.254
 rs_grid_zero                      1053 11.9    5.006    5.227    5.006    5.227
 pw_scatter_p                      2174 12.7    4.410    5.192    4.410    5.192
 transfer_rs2pw_30                  212 11.7    1.364    1.565    4.445    4.867
 pw_integral_ab_c1d_c1d_gs          210 10.3    0.804    0.931    1.929    4.595
 pw_copy                           2875 10.9    4.044    4.413    4.044    4.413
 mp_sendrecv_dv                   53848 12.7    3.752    4.041    3.752    4.041
 calculate_rho_atom_coeff           212  8.7    0.152    0.430    3.746    3.769
 pw_poisson_set                     211 10.3    0.005    0.005    3.472    3.569
 pw_copy_to_array                  2110 13.3    2.492    3.212    2.492    3.212
 integrate_four_center_getP         350 10.8    0.047    0.054    2.188    2.719
 pw_copy_from_array                2174 12.7    1.744    2.240    1.744    2.240
 pw_axpy                           2248 10.7    1.895    2.176    1.895    2.176
 mp_max_i                           681  4.7    0.959    2.099    0.959    2.099
 pw_zero                           2246 10.6    1.717    2.060    1.717    2.060
 cp_dbcsr_sm_fm_multiply            886  8.6    0.011    0.012    1.860    2.018
 xc_functional_eval                 911 10.9    0.001    0.003    1.193    1.974
 pbe_lda_eval                       911 11.9    1.192    1.971    1.192    1.971
 update_ks_atom                     210  8.7    0.082    0.301    1.132    1.329
 dbcsr_complete_redistribute       2987 10.4    0.068    0.112    1.083    1.265
 mp_sum_l                          4840 10.4    0.776    1.260    0.776    1.260
 mp_bcast_dm                       1680  9.7    1.051    1.253    1.051    1.253
 transfer_rs2pw_10                  212 11.7    0.330    0.408    1.000    1.219
 dbcsr_multiply_generic            1236 10.3    0.030    0.036    1.156    1.212
 transfer_pw2rs_10                  210 12.0    0.198    0.226    0.964    1.209
 fft_wrap_pw1pw2_30                 422 11.8    0.014    0.017    0.721    1.099
 integrate_four_center_dist_KS      350 10.8    0.043    0.049    1.061    1.065
 calculate_rho0_atom                633  9.7    0.978    1.030    0.978    1.030
 parallel_gemm_fm                  1330  8.2    0.001    0.001    0.912    1.017
 parallel_gemm_fm_cosma            1330  9.2    0.911    1.016    0.911    1.016
 integrate_four_center_load         350 10.8    0.001    0.001    0.487    0.963
 hfx_load_balance                     1 11.0    0.000    0.000    0.487    0.962
 hfx_load_balance_range               1 12.0    0.000    0.000    0.481    0.956
 mp_alltoall_i22                   3966 11.4    0.739    0.943    0.739    0.943
 copy_fm_to_dbcsr                  2007  9.5    0.005    0.006    0.719    0.937
 grid_integrate_task_list           210 10.0    0.085    0.916    0.085    0.916
 rs_gather_matrices                 210 10.0    0.003    0.022    0.098    0.876
 cp_dbcsr_sm_fm_multiply_core       886  9.6    0.001    0.002    0.793    0.844
 qs_scf_new_mos                      70  5.0    0.001    0.001    0.820    0.834
 prepare_dr1dr                      700 11.1    0.649    0.800    0.649    0.800
 pw_poisson_rebuild                 210 10.3    0.000    0.000    0.706    0.737
 ps_wavelet_create                    1 10.0    0.000    0.000    0.706    0.736
 RS_z_slice_distribution              1 11.0    0.225    0.252    0.706    0.736
 copy_dbcsr_to_fm                   978  9.2    0.007    0.008    0.625    0.689
 calc_pair_dist_radii                 1 10.0    0.418    0.423    0.648    0.662
 tddfpt_print_nto_analysis            1  6.0    0.002    0.002    0.650    0.659
 tddfpt_construct_ground_state_       1  6.0    0.000    0.000    0.646    0.651
 offload_free_buffer                218 10.1    0.325    0.618    0.325    0.618
 tddfpt_orthonormalize_psi1_psi       8  6.9    0.006    0.007    0.499    0.609
 eigensolver_symm                    70  6.0    0.006    0.007    0.597    0.601
 powell_optimize                 371723 11.0    0.579    0.600    0.579    0.600
 cp_fm_diag_elpa                     99  7.2    0.000    0.000    0.580    0.585
 multiply_cannon                   1236 11.3    0.070    0.083    0.444    0.500
 cp_dbcsr_plus_fm_fm_t              210  8.3    0.002    0.002    0.475    0.491
 cp_fm_diag_elpa_base                99  8.4    0.305    0.477    0.309    0.491
 init_scf_run                         1  3.0    0.000    0.000    0.469    0.470
 scf_env_initial_rho_setup            1  4.0    0.000    0.000    0.462    0.462
 mp_isendrecv_dv                 142240 12.2    0.116    0.456    0.116    0.456
 cp_fm_redistribute_end             119  8.2    0.227    0.426    0.233    0.430
 fft_wrap_pw1pw2_10                 422 11.8    0.004    0.004    0.288    0.387
 mp_rank_compare                   4284 14.0    0.349    0.376    0.349    0.376
 make_m2s                          2472 11.3    0.019    0.020    0.329    0.368
 multiply_cannon_loop              1236 12.3    0.053    0.054    0.279    0.346
 scale_and_distribute               420 11.3    0.253    0.340    0.253    0.340
 make_images                       2472 12.3    0.048    0.051    0.283    0.318
 cp_fm_trace_a1b1t1_aa            10080  8.0    0.018    0.027    0.247    0.300
 cp_fm_geeig                         20  7.0    0.001    0.001    0.287    0.288
 tddfpt_compute_residual_vects        6  7.0    0.000    0.000    0.283    0.285
 mp_alltoall_z11v                   422 14.8    0.180    0.254    0.180    0.254
 qs_energies_init_hamiltonians        1  3.0    0.000    0.000    0.254    0.254
 build_core_hamiltonian_matrix        1  4.0    0.000    0.000    0.251    0.251
 overlap_condnum                      1  5.0    0.000    0.000    0.248    0.251
 pw_scale                           560  9.5    0.166    0.244    0.166    0.244
 dbcsr_desymmetrize_deep            979 10.2    0.010    0.012    0.185    0.220
 tddfpt_apply_energy_diff             7  8.0    0.000    0.000    0.217    0.217
 create_kernel_env                    1  6.0    0.000    0.000    0.199    0.217
 xc_prep_2nd_deriv                    1  7.0    0.000    0.000    0.199    0.217
 arnoldi_conjugate_gradient           5  6.0    0.005    0.007    0.214    0.214
 xc_2nd_deriv_of_r                  560 10.0    0.000    0.026    0.004    0.209
 qs_init_subsys                       1  2.0    0.002    0.002    0.187    0.187
 qs_env_setup                         1  3.0    0.000    0.000    0.166    0.167
 qs_env_rebuild_pw_env                2  3.5    0.000    0.000    0.165    0.166
 pw_env_rebuild                       1  5.0    0.000    0.000    0.165    0.166
 make_images_sizes                 2472 13.3    0.002    0.002    0.158    0.165
 mp_alltoall_i44                   2472 14.3    0.156    0.163    0.156    0.163
 multiply_cannon_metrocomm3       19776 13.3    0.027    0.028    0.081    0.158
 mp_cart_create                    1613 10.6    0.139    0.153    0.141    0.155
 tddfpt_orthogonalize_psi1_psi0       8  6.9    0.000    0.000    0.104    0.154
 mp_cart_sub                       1959 11.2    0.148    0.150    0.148    0.150
 dbcsr_sym_matrix_vector_mult      1809  7.0    0.013    0.014    0.102    0.143
 yz_to_xz                           210 14.0    0.009    0.010    0.093    0.139
 rs_grid_create                     216 10.2    0.001    0.002    0.016    0.137
 xz_to_yz                           212 13.7    0.006    0.011    0.102    0.136
 offload_create_buffer              218 11.2    0.015    0.136    0.015    0.136
 create_qs_kind_set                   1  2.0    0.000    0.000    0.122    0.122
 read_qs_kind                         3  3.0    0.037    0.051    0.122    0.122
 dbcsr_finalize                    8645 11.3    0.016    0.025    0.096    0.120
 pw_grid_setup                        4  6.0    0.000    0.000    0.118    0.119
 pw_grid_setup_internal               4  7.0    0.002    0.002    0.118    0.119
 calculate_dm_sparse                 70  6.0    0.000    0.000    0.108    0.117
 mp_irecv_dv                      78162 13.5    0.052    0.109    0.052    0.109
 write_mo_set_to_restart             70  5.0    0.001    0.051    0.043    0.108
 rs_scatter_matrices                212  9.7    0.001    0.005    0.011    0.103
 multiply_cannon_metrocomm1       19776 13.3    0.014    0.015    0.037    0.090
 -------------------------------------------------------------------------------

 The number of warnings for this run is : 1
 
 -------------------------------------------------------------------------------
  **** **** ******  **  PROGRAM ENDED AT                 2025-04-21 19:34:31.408
 ***** ** ***  *** **   PROGRAM RAN ON                                  n2cn0172
 **    ****   ******    PROGRAM RAN BY                                  metdyn02
 ***** **    ** ** **   PROGRAM PROCESS ID                               2989528
  **** **  *******  **  PROGRAM STOPPED IN /scratch/hpc-prf-metdyn/metdyn02_Remi
                                           /10_MOL/05_MOL/W4-11+ALK/c-hono/TZVP/
                                           TDDFT/RILIM
