 DBCSR| CPU Multiplication driver                                           XSMM (U)
 DBCSR| Multrec recursion limit                                              512 (U)
 DBCSR| Multiplication stack size                                           1000 (D)
 DBCSR| Maximum elements for images                                    UNLIMITED (U)
 DBCSR| Multiplicative factor virtual images                                   1 (U)
 DBCSR| Use multiplication densification                                       T (D)
 DBCSR| Multiplication size stacks                                             3 (U)
 DBCSR| Use memory pool for CPU allocation                                     F (U)
 DBCSR| Number of 3D layers                                               SINGLE (U)
 DBCSR| Use MPI memory allocation                                              F (U)
 DBCSR| Use RMA algorithm                                                      F (U)
 DBCSR| Use Communication thread                                               T (U)
 DBCSR| Communication thread load                                             60 (D)
 DBCSR| MPI: My process id                                                     0
 DBCSR| MPI: Number of processes                                              32
 DBCSR| OMP: Current number of threads                                         8
 DBCSR| OMP: Max number of threads                                             8
 DBCSR| Split modifier for TAS multiplication algorithm                  1.0E+00 (U)


  **** **** ******  **  PROGRAM STARTED AT               2025-06-23 19:27:59.266
 ***** ** ***  *** **   PROGRAM STARTED ON                              n2cn0564
 **    ****   ******    PROGRAM STARTED BY                              metdyn02
 ***** **    ** ** **   PROGRAM PROCESS ID                                740829
  **** **  *******  **  PROGRAM STARTED IN /scratch/hpc-prf-metdyn/metdyn02_Remi
                                           /10_MOL/05_MOL/aUKBqsEOTmq69kFe5R_nOg
                                           /5k_set_final_qzvp/HAMFOS/mini-SZV/TD
                                           DFT/1e-4

 CP2K| version string:                 CP2K version 2025.1 (Development Version)
 CP2K| source code revision number:                                  git:32ddf85
 CP2K| cp2kflags: omp libint fftw3 libxc libgrpp elpa parallel scalapack mpi_f08
 CP2K|             cosma xsmm plumed2 spglib libvori libbqb libvdwxc hdf5
 CP2K| is freely available from                            https://www.cp2k.org/
 CP2K| Program compiled at                         Mon May 19 11:32:37 CEST 2025
 CP2K| Program compiled on                                              n2login1
 CP2K| Program compiled for                                                local
 CP2K| Data directory path    /opt/software/pc2/EB-SW/software/CP2K/2024.1-foss-
 CP2K| Input file name                                                    GW.inp

 GLOBAL| Force Environment number                                              1
 GLOBAL| Basis set file name            /scratch/hpc-prf-metdyn/metdyn02_Remi/BA
 GLOBAL| Potential file name            /pc2/groups/hpc-prf-metdyn/metdyn02_Remi
 GLOBAL| MM Potential file name                                     MM_POTENTIAL
 GLOBAL| Coordinate file name                                      __STD_INPUT__
 GLOBAL| Method name                                                        CP2K
 GLOBAL| Project name                                                       MoS2
 GLOBAL| Run type                                                         ENERGY
 GLOBAL| FFT library                                                       FFTW3
 GLOBAL| Diagonalization library                                            ELPA
 GLOBAL| Cholesky decomposition library                                ScaLAPACK
 GLOBAL| DGEMM library                                                      BLAS
 GLOBAL| Minimum number of eigenvectors for ELPA usage                        16
 GLOBAL| Orthonormality check for eigenvectors                          DISABLED
 GLOBAL| Matrix multiplication library                                     COSMA
 GLOBAL| All-to-all communication in single precision                          F
 GLOBAL| FFTs using library dependent lengths                                  F
 GLOBAL| Grid backend                                                       AUTO
 GLOBAL| Global print level                                               MEDIUM
 GLOBAL| MPI I/O enabled                                                       T
 GLOBAL| Total number of message passing processes                            32
 GLOBAL| Number of threads for this process                                    8
 GLOBAL| This output is from process                                           0
 GLOBAL| OpenMP stack size per thread (OMP_STACKSIZE)                    default
 GLOBAL| CPU model name                          AMD EPYC 7763 64-Core Processor
 GLOBAL| CPUID                                                              1002

 MEMORY| system memory details [Kb]
 MEMORY|                        rank 0           min           max       average
 MEMORY| MemTotal            263897624     263897540     263897624     263897584
 MEMORY| MemFree             247088556     246719168     252475000     250074461
 MEMORY| Buffers                125580         24724        125968         81345
 MEMORY| Cached               11344512       6564428      11805916       8500988
 MEMORY| Slab                  1952020       1418976       2252420       1878541
 MEMORY| SReclaimable           756456        283992       1004476        664704
 MEMORY| MemLikelyFree       259315104     259259788     259395608     259321499


 *** Fundamental physical constants (SI units) ***

 *** Literature: B. J. Mohr and B. N. Taylor,
 ***             CODATA recommended values of the fundamental physical
 ***             constants: 2006, Web Version 5.1
 ***             http://physics.nist.gov/constants

 Speed of light in vacuum [m/s]                             2.99792458000000E+08
 Magnetic constant or permeability of vacuum [N/A**2]       1.25663706143592E-06
 Electric constant or permittivity of vacuum [F/m]          8.85418781762039E-12
 Planck constant (h) [J*s]                                  6.62606896000000E-34
 Planck constant (h-bar) [J*s]                              1.05457162825177E-34
 Elementary charge [C]                                      1.60217648700000E-19
 Electron mass [kg]                                         9.10938215000000E-31
 Electron g factor [ ]                                     -2.00231930436220E+00
 Proton mass [kg]                                           1.67262163700000E-27
 Fine-structure constant                                    7.29735253760000E-03
 Rydberg constant [1/m]                                     1.09737315685270E+07
 Avogadro constant [1/mol]                                  6.02214179000000E+23
 Boltzmann constant [J/K]                                   1.38065040000000E-23
 Atomic mass unit [kg]                                      1.66053878200000E-27
 Bohr radius [m]                                            5.29177208590000E-11

 *** Conversion factors ***

 [u] -> [a.u.]                                              1.82288848426455E+03
 [Angstrom] -> [Bohr] = [a.u.]                              1.88972613288564E+00
 [a.u.] = [Bohr] -> [Angstrom]                              5.29177208590000E-01
 [a.u.] -> [s]                                              2.41888432650478E-17
 [a.u.] -> [fs]                                             2.41888432650478E-02
 [a.u.] -> [J]                                              4.35974393937059E-18
 [a.u.] -> [N]                                              8.23872205491840E-08
 [a.u.] -> [K]                                              3.15774647902944E+05
 [a.u.] -> [kJ/mol]                                         2.62549961709828E+03
 [a.u.] -> [kcal/mol]                                       6.27509468713739E+02
 [a.u.] -> [Pa]                                             2.94210107994716E+13
 [a.u.] -> [bar]                                            2.94210107994716E+08
 [a.u.] -> [atm]                                            2.90362800883016E+08
 [a.u.] -> [eV]                                             2.72113838565563E+01
 [a.u.] -> [Hz]                                             6.57968392072181E+15
 [a.u.] -> [1/cm] (wave numbers)                            2.19474631370540E+05
 [a.u./Bohr**2] -> [1/cm]                                   5.14048714338585E+03
 

 CELL_TOP| Volume [angstrom^3]:                                     27000.000000
 CELL_TOP| Vector a [angstrom    30.000     0.000     0.000   |a| =    30.000000
 CELL_TOP| Vector b [angstrom     0.000    30.000     0.000   |b| =    30.000000
 CELL_TOP| Vector c [angstrom     0.000     0.000    30.000   |c| =    30.000000
 CELL_TOP| Angle (b,c), alpha [degree]:                                90.000000
 CELL_TOP| Angle (a,c), beta  [degree]:                                90.000000
 CELL_TOP| Angle (a,b), gamma [degree]:                                90.000000
 CELL_TOP| Numerically orthorhombic:                                         YES
 CELL_TOP| Periodicity                                                      NONE

 GENERATE|  Preliminary Number of Bonds generated:                             0
 GENERATE|  Achieved consistency in connectivity generation.

 CELL| Volume [angstrom^3]:                                         27000.000000
 CELL| Vector a [angstrom]:      30.000     0.000     0.000   |a| =    30.000000
 CELL| Vector b [angstrom]:       0.000    30.000     0.000   |b| =    30.000000
 CELL| Vector c [angstrom]:       0.000     0.000    30.000   |c| =    30.000000
 CELL| Angle (b,c), alpha [degree]:                                    90.000000
 CELL| Angle (a,c), beta  [degree]:                                    90.000000
 CELL| Angle (a,b), gamma [degree]:                                    90.000000
 CELL| Numerically orthorhombic:                                             YES
 CELL| Periodicity                                                          NONE

 CELL_REF| Volume [angstrom^3]:                                     27000.000000
 CELL_REF| Vector a [angstrom    30.000     0.000     0.000   |a| =    30.000000
 CELL_REF| Vector b [angstrom     0.000    30.000     0.000   |b| =    30.000000
 CELL_REF| Vector c [angstrom     0.000     0.000    30.000   |c| =    30.000000
 CELL_REF| Angle (b,c), alpha [degree]:                                90.000000
 CELL_REF| Angle (a,c), beta  [degree]:                                90.000000
 CELL_REF| Angle (a,b), gamma [degree]:                                90.000000
 CELL_REF| Numerically orthorhombic:                                         YES
 CELL_REF| Periodicity                                                      NONE

 *******************************************************************************
 *******************************************************************************
 **                                                                           **
 **     #####                         ##              ##                      **
 **    ##   ##            ##          ##              ##                      **
 **   ##     ##                       ##            ######                    **
 **   ##     ##  ##   ##  ##   #####  ##  ##   ####   ##    #####    #####    **
 **   ##     ##  ##   ##  ##  ##      ## ##   ##      ##   ##   ##  ##   ##   **
 **   ##  ## ##  ##   ##  ##  ##      ####     ###    ##   ######   ######    **
 **    ##  ###   ##   ##  ##  ##      ## ##      ##   ##   ##       ##        **
 **     #######   #####   ##   #####  ##  ##  ####    ##    #####   ##        **
 **           ##                                                    ##        **
 **                                                                           **
 **                                                ... make the atoms dance   **
 **                                                                           **
 **            Copyright (C) by CP2K developers group (2000-2025)             **
 **                      J. Chem. Phys. 152, 194103 (2020)                    **
 **                                                                           **
 *******************************************************************************

 DFT| Spin restricted Kohn-Sham (RKS) calculation                            RKS
 DFT| Multiplicity                                                             1
 DFT| Number of spin states                                                    1
 DFT| Charge                                                                   0
 DFT| Self-interaction correction (SIC)                                       NO
 DFT| Cutoffs: density                                              1.000000E-10
 DFT|          gradient                                             1.000000E-10
 DFT|          tau                                                  1.000000E-10
 DFT|          cutoff_smoothing_range                               0.000000E+00
 DFT| XC density smoothing                                                  NONE
 DFT| XC derivatives                                                          PW

 FUNCTIONAL| PBE:
 FUNCTIONAL| J.P.Perdew, K.Burke, M.Ernzerhof, Phys. Rev. Letter, vol. 77, n 18,
 FUNCTIONAL|  pp. 3865-3868, (1996)sx=0.750sc=1.000{spin unpolarized}           


 QS| Method:                                                                GAPW
 QS| Density plane wave grid type                        NON-SPHERICAL FULLSPACE
 QS| Number of grid levels:                                                    4
 QS| Density cutoff [a.u.]:                                                250.0
 QS| Multi grid cutoff [a.u.]: 1) grid level                               250.0
 QS|                           2) grid level                                83.3
 QS|                           3) grid level                                27.8
 QS|                           4) grid level                                 9.3
 QS| Grid level progression factor:                                          3.0
 QS| Relative density cutoff [a.u.]:                                        50.0
 QS| Interaction thresholds: eps_pgf_orb:                                1.0E-12
 QS|                         eps_filter_matrix:                          0.0E+00
 QS|                         eps_core_charge:                            1.0E-14
 QS|                         eps_rho_gspace:                             1.0E-12
 QS|                         eps_rho_rspace:                             1.0E-12
 QS|                         eps_gvg_rspace:                             1.0E-06
 QS|                         eps_ppl:                                    1.0E-02
 QS|                         eps_ppnl:                                   1.0E-08
 QS| GAPW|      One center basis from orbital basis primitives
 QS| GAPW|                   eps_fit:                                    1.0E-04
 QS| GAPW|                   eps_iso:                                    1.0E-12
 QS| GAPW|                   eps_svd:                                    1.0E-08
 QS| GAPW|                   eps_cpc:                                    1.0E-12
 QS| GAPW|   atom-r-grid: quadrature:                                     GC_LOG
 QS| GAPW|      atom-s-grid:  max l :                                          2
 QS| GAPW|      max_l_rho0 :                                                   2


 ATOMIC KIND INFORMATION

  1. Atomic kind: C                                     Number of atoms:       4

     Orbital Basis Set                                    aug-SZV-MOLOPT-ae-mini

       Number of orbital shell sets:                                           2
       Number of orbital shells:                                               5
       Number of primitive Cartesian functions:                                7
       Number of Cartesian basis functions:                                    9
       Number of spherical basis functions:                                    9
       Norm type:                                                              2

       Normalised Cartesian orbitals:

                        Set   Shell   Orbital            Exponent    Coefficient

                          1       1    2s                0.114558       0.000000
                                                         0.222289       0.161536
                                                         0.683483       0.214036
                                                         2.941249      -0.160017

                          1       2    3s                0.114558       0.000272
                                                         0.222289       0.256636
                                                         0.683483      -0.079244
                                                         2.941249       0.000032

                          1       3    3px               0.114558       0.000000
                                                         0.222289       0.085276
                                                         0.683483       0.538304
                                                         2.941249       0.856044
                          1       3    3py               0.114558       0.000000
                                                         0.222289       0.085276
                                                         0.683483       0.538304
                                                         2.941249       0.856044
                          1       3    3pz               0.114558       0.000000
                                                         0.222289       0.085276
                                                         0.683483       0.538304
                                                         2.941249       0.856044

                          1       4    4px               0.114558      -0.035043
                                                         0.222289      -0.159067
                                                         0.683483       0.106927
                                                         2.941249      -0.036832
                          1       4    4py               0.114558      -0.035043
                                                         0.222289      -0.159067
                                                         0.683483       0.106927
                                                         2.941249      -0.036832
                          1       4    4pz               0.114558      -0.035043
                                                         0.222289      -0.159067
                                                         0.683483       0.106927
                                                         2.941249      -0.036832

                          2       1    1s               71.616837       2.707801
                                                        13.045096       2.618883
                                                         3.530512       0.816191

     RI Auxiliary Basis Set             RI_aug-SZV-MOLOPT-ae-mini_N_RI_022_s_p_d

       Number of orbital shell sets:                                          10
       Number of orbital shells:                                              10
       Number of primitive Cartesian functions:                               10
       Number of Cartesian basis functions:                                   24
       Number of spherical basis functions:                                   22
       Norm type:                                                              2

       Normalised Cartesian orbitals:

                        Set   Shell   Orbital            Exponent    Coefficient

                          1       1    9dx2              0.319489       0.223463
                          1       1    9dxy              0.319489       0.387050
                          1       1    9dxz              0.319489       0.387050
                          1       1    9dy2              0.319489       0.223463
                          1       1    9dyz              0.319489       0.387050
                          1       1    9dz2              0.319489       0.223463

                          2       1    1s                0.357304       0.329373

                          3       1    7px               0.413040       0.471987
                          3       1    7py               0.413040       0.471987
                          3       1    7pz               0.413040       0.471987

                          4       1    2s                0.585920       0.477297

                          5       1    3s                0.962549       0.692592

                          6       1    8px               1.175289       1.744299
                          6       1    8py               1.175289       1.744299
                          6       1    8pz               1.175289       1.744299

                          7       1    4s                1.583093       1.005866

                          8       1   10dx2              1.968757       5.385741
                          8       1   10dxy              1.968757       9.328377
                          8       1   10dxz              1.968757       9.328377
                          8       1   10dy2              1.968757       5.385741
                          8       1   10dyz              1.968757       9.328377
                          8       1   10dz2              1.968757       5.385741

                          9       1    5s                2.602827       1.460475

                         10       1    6s                4.278785       2.120315

       Atomic covalent radius [Angstrom]:                                  0.770

       Atomic van der Waals radius [Angstrom]:                             1.700

     The atoms of this atomic kind are PAW atoms (GAPW):
       Hard Gaussian function radius:                                      1.512
       Rho0 radius:                                                        1.512
       Maximum GTO radius used for PAW projector construction:            24.566

     GAPW Soft Basis Set                             aug-SZV-MOLOPT-ae-mini_soft

       Number of orbital shell sets:                                           2
       Number of orbital shells:                                               5
       Number of primitive Cartesian functions:                                5
       Number of Cartesian basis functions:                                    9
       Number of spherical basis functions:                                    9
       Norm type:                                                              2

       Normalised Cartesian orbitals:

                        Set   Shell   Orbital            Exponent    Coefficient

                          1       1    2s                0.114558       0.000000
                                                         0.222289       0.161536
                                                         0.683483       0.214036
                                                         2.941249      -0.160017

                          1       2    3s                0.114558       0.000272
                                                         0.222289       0.256636
                                                         0.683483      -0.079244
                                                         2.941249       0.000032

                          1       3    3px               0.114558       0.000000
                                                         0.222289       0.085276
                                                         0.683483       0.538304
                                                         2.941249       0.856044
                          1       3    3py               0.114558       0.000000
                                                         0.222289       0.085276
                                                         0.683483       0.538304
                                                         2.941249       0.856044
                          1       3    3pz               0.114558       0.000000
                                                         0.222289       0.085276
                                                         0.683483       0.538304
                                                         2.941249       0.856044

                          1       4    4px               0.114558      -0.035043
                                                         0.222289      -0.159067
                                                         0.683483       0.106927
                                                         2.941249      -0.036832
                          1       4    4py               0.114558      -0.035043
                                                         0.222289      -0.159067
                                                         0.683483       0.106927
                                                         2.941249      -0.036832
                          1       4    4pz               0.114558      -0.035043
                                                         0.222289      -0.159067
                                                         0.683483       0.106927
                                                         2.941249      -0.036832

                          2       1    1s                3.530512       0.816191

     AE Potential information for                                            ALL

       Description:                                       All-electron potential
                                          Krack, Parrinello, PCCP 2, 2105 (2000)

       Gaussian exponent of the core charge distribution:               4.109048
       Electronic configuration (s p d ...):                           4   2   0

  2. Atomic kind: N                                     Number of atoms:       4

     Orbital Basis Set                                    aug-SZV-MOLOPT-ae-mini

       Number of orbital shell sets:                                           2
       Number of orbital shells:                                               5
       Number of primitive Cartesian functions:                                7
       Number of Cartesian basis functions:                                    9
       Number of spherical basis functions:                                    9
       Norm type:                                                              2

       Normalised Cartesian orbitals:

                        Set   Shell   Orbital            Exponent    Coefficient

                          1       1    1s                0.112012       0.000000
                                                         0.285714       0.194997
                                                         0.878496       0.258372
                                                         3.780455      -0.193164

                          1       2    2s                0.112012      -0.247059
                                                         0.285714       0.355178
                                                         0.878496       0.105643
                                                         3.780455      -0.000189

                          1       3    2px               0.112012       0.000000
                                                         0.285714       0.116706
                                                         0.878496       0.736703
                                                         3.780455       1.171552
                          1       3    2py               0.112012       0.000000
                                                         0.285714       0.116706
                                                         0.878496       0.736703
                                                         3.780455       1.171552
                          1       3    2pz               0.112012       0.000000
                                                         0.285714       0.116706
                                                         0.878496       0.736703
                                                         3.780455       1.171552

                          1       4    3px               0.112012       0.096580
                                                         0.285714      -0.017996
                                                         0.878496       0.000162
                                                         3.780455       0.000013
                          1       4    3py               0.112012       0.096580
                                                         0.285714      -0.017996
                                                         0.878496       0.000162
                                                         3.780455       0.000013
                          1       4    3pz               0.112012       0.096580
                                                         0.285714      -0.017996
                                                         0.878496       0.000162
                                                         3.780455       0.000013

                          2       1    1s               99.106168       3.454863
                                                        18.052312       3.341413
                                                         4.885660       1.041372

     RI Auxiliary Basis Set             RI_aug-SZV-MOLOPT-ae-mini_N_RI_023_s_p_d

       Number of orbital shell sets:                                           9
       Number of orbital shells:                                               9
       Number of primitive Cartesian functions:                                9
       Number of Cartesian basis functions:                                   25
       Number of spherical basis functions:                                   23
       Norm type:                                                              2

       Normalised Cartesian orbitals:

                        Set   Shell   Orbital            Exponent    Coefficient

                          1       1    8dx2              0.247473       0.142917
                          1       1    8dxy              0.247473       0.247539
                          1       1    8dxz              0.247473       0.247539
                          1       1    8dy2              0.247473       0.142917
                          1       1    8dyz              0.247473       0.247539
                          1       1    8dz2              0.247473       0.142917

                          2       1    1s                0.269982       0.266939

                          3       1    5px               0.290292       0.303728
                          3       1    5py               0.290292       0.303728
                          3       1    5pz               0.290292       0.303728

                          4       1    2s                0.773829       0.588023

                          5       1    6px               1.337055       2.049400
                          5       1    6py               1.337055       2.049400
                          5       1    6pz               1.337055       2.049400

                          6       1    3s                2.228530       1.299942

                          7       1    9dx2              2.368474       7.442682
                          7       1    9dxy              2.368474      12.891104
                          7       1    9dxz              2.368474      12.891104
                          7       1    9dy2              2.368474       7.442682
                          7       1    9dyz              2.368474      12.891104
                          7       1    9dz2              2.368474       7.442682

                          8       1    7px               6.206242      13.962911
                          8       1    7py               6.206242      13.962911
                          8       1    7pz               6.206242      13.962911

                          9       1    4s                6.295867       2.832707

       Atomic covalent radius [Angstrom]:                                  0.750

       Atomic van der Waals radius [Angstrom]:                             1.550

     The atoms of this atomic kind are PAW atoms (GAPW):
       Hard Gaussian function radius:                                      1.512
       Rho0 radius:                                                        1.512
       Maximum GTO radius used for PAW projector construction:            24.566

     GAPW Soft Basis Set                             aug-SZV-MOLOPT-ae-mini_soft

       Number of orbital shell sets:                                           2
       Number of orbital shells:                                               5
       Number of primitive Cartesian functions:                                4
       Number of Cartesian basis functions:                                    9
       Number of spherical basis functions:                                    9
       Norm type:                                                              2

       Normalised Cartesian orbitals:

                        Set   Shell   Orbital            Exponent    Coefficient

                          1       1    1s                0.112012       0.000000
                                                         0.285714       0.194997
                                                         0.878496       0.258372
                                                         3.780455      -0.193164

                          1       2    2s                0.112012      -0.247059
                                                         0.285714       0.355178
                                                         0.878496       0.105643
                                                         3.780455      -0.000189

                          1       3    2px               0.112012       0.000000
                                                         0.285714       0.116706
                                                         0.878496       0.736703
                                                         3.780455       1.171552
                          1       3    2py               0.112012       0.000000
                                                         0.285714       0.116706
                                                         0.878496       0.736703
                                                         3.780455       1.171552
                          1       3    2pz               0.112012       0.000000
                                                         0.285714       0.116706
                                                         0.878496       0.736703
                                                         3.780455       1.171552

                          1       4    3px               0.112012       0.096580
                                                         0.285714      -0.017996
                                                         0.878496       0.000162
                                                         3.780455       0.000013
                          1       4    3py               0.112012       0.096580
                                                         0.285714      -0.017996
                                                         0.878496       0.000162
                                                         3.780455       0.000013
                          1       4    3pz               0.112012       0.096580
                                                         0.285714      -0.017996
                                                         0.878496       0.000162
                                                         3.780455       0.000013

                          2       1    1s         

     AE Potential information for                                            ALL

       Description:                                       All-electron potential
                                          Krack, Parrinello, PCCP 2, 2105 (2000)

       Gaussian exponent of the core charge distribution:               5.979100
       Electronic configuration (s p d ...):                           4   3   0

  3. Atomic kind: S                                     Number of atoms:       1

     Orbital Basis Set                                    aug-SZV-MOLOPT-ae-mini

       Number of orbital shell sets:                                           3
       Number of orbital shells:                                               7
       Number of primitive Cartesian functions:                               10
       Number of Cartesian basis functions:                                   13
       Number of spherical basis functions:                                   13
       Norm type:                                                              2

       Normalised Cartesian orbitals:

                        Set   Shell   Orbital            Exponent    Coefficient

                          1       1    1s                2.029194      -0.266118
                                                         0.566140       0.104938
                                                         0.221583       0.207251
                                                         0.100000       0.000000

                          1       2    2s                2.029194       0.000000
                                                         0.566140       0.204121
                                                         0.221583      -0.309021
                                                         0.100000      -0.000667

                          1       3    2px               2.029194       0.036552
                                                         0.566140       0.416614
                                                         0.221583       0.100116
                                                         0.100000       0.000000
                          1       3    2py               2.029194       0.036552
                                                         0.566140       0.416614
                                                         0.221583       0.100116
                                                         0.100000       0.000000
                          1       3    2pz               2.029194       0.036552
                                                         0.566140       0.416614
                                                         0.221583       0.100116
                                                         0.100000       0.000000

                          1       4    3px               2.029194       0.000000
                                                         0.566140      -0.277816
                                                         0.221583      -0.031781
                                                         0.100000       0.095870
                          1       4    3py               2.029194       0.000000
                                                         0.566140      -0.277816
                                                         0.221583      -0.031781
                                                         0.100000       0.095870
                          1       4    3pz               2.029194       0.000000
                                                         0.566140      -0.277816
                                                         0.221583      -0.031781
                                                         0.100000       0.095870

                          2       1    1s               33.329752      -0.988305
                                                         7.745118       1.321941
                                                         2.518953       0.997688

                          2       2    2px              33.329752      17.797990
                                                         7.745118      11.191879
                                                         2.518953       1.772979
                          2       2    2py              33.329752      17.797990
                                                         7.745118      11.191879
                                                         2.518953       1.772979
                          2       2    2pz              33.329752      17.797990
                                                         7.745118      11.191879
                                                         2.518953       1.772979

                          3       1    1s              533.125730      12.203369
                                                        97.109510      11.802561
                                                        26.281620       3.678347

     RI Auxiliary Basis Set             RI_aug-SZV-MOLOPT-ae-mini_N_RI_024_s_p_d

       Number of orbital shell sets:                                          10
       Number of orbital shells:                                              10
       Number of primitive Cartesian functions:                               10
       Number of Cartesian basis functions:                                   26
       Number of spherical basis functions:                                   24
       Norm type:                                                              2

       Normalised Cartesian orbitals:

                        Set   Shell   Orbital            Exponent    Coefficient

                          1       1    1s                0.223905       0.231984

                          2       1    9dx2              0.243010       0.138437
                          2       1    9dxy              0.243010       0.239780
                          2       1    9dxz              0.243010       0.239780
                          2       1    9dy2              0.243010       0.138437
                          2       1    9dyz              0.243010       0.239780
                          2       1    9dz2              0.243010       0.138437

                          3       1    6px               0.396147       0.447982
                          3       1    6py               0.396147       0.447982
                          3       1    6pz               0.396147       0.447982

                          4       1    2s                0.458945       0.397402

                          5       1    3s                0.920347       0.669690

                          6       1    7px               0.969722       1.371668
                          6       1    7py               0.969722       1.371668
                          6       1    7pz               0.969722       1.371668

                          7       1   10dx2              0.971807       1.565576
                          7       1   10dxy              0.971807       2.711657
                          7       1   10dxz              0.971807       2.711657
                          7       1   10dy2              0.971807       1.565576
                          7       1   10dyz              0.971807       2.711657
                          7       1   10dz2              0.971807       1.565576

                          8       1    4s                1.767285       1.092421

                          9       1    8px               1.953355       3.291673
                          9       1    8py               1.953355       3.291673
                          9       1    8pz               1.953355       3.291673

                         10       1    5s                3.375179       1.774732

       Atomic covalent radius [Angstrom]:                                  1.020

       Atomic van der Waals radius [Angstrom]:                             1.800

     The atoms of this atomic kind are PAW atoms (GAPW):
       Hard Gaussian function radius:                                      1.512
       Rho0 radius:                                                        1.512
       Maximum GTO radius used for PAW projector construction:            24.566

     GAPW Soft Basis Set                             aug-SZV-MOLOPT-ae-mini_soft

       Number of orbital shell sets:                                           3
       Number of orbital shells:                                               7
       Number of primitive Cartesian functions:                                5
       Number of Cartesian basis functions:                                   13
       Number of spherical basis functions:                                   13
       Norm type:                                                              2

       Normalised Cartesian orbitals:

                        Set   Shell   Orbital            Exponent    Coefficient

                          1       1    1s                2.029194      -0.266118
                                                         0.566140       0.104938
                                                         0.221583       0.207251
                                                         0.100000       0.000000

                          1       2    2s                2.029194       0.000000
                                                         0.566140       0.204121
                                                         0.221583      -0.309021
                                                         0.100000      -0.000667

                          1       3    2px               2.029194       0.036552
                                                         0.566140       0.416614
                                                         0.221583       0.100116
                                                         0.100000       0.000000
                          1       3    2py               2.029194       0.036552
                                                         0.566140       0.416614
                                                         0.221583       0.100116
                                                         0.100000       0.000000
                          1       3    2pz               2.029194       0.036552
                                                         0.566140       0.416614
                                                         0.221583       0.100116
                                                         0.100000       0.000000

                          1       4    3px               2.029194       0.000000
                                                         0.566140      -0.277816
                                                         0.221583      -0.031781
                                                         0.100000       0.095870
                          1       4    3py               2.029194       0.000000
                                                         0.566140      -0.277816
                                                         0.221583      -0.031781
                                                         0.100000       0.095870
                          1       4    3pz               2.029194       0.000000
                                                         0.566140      -0.277816
                                                         0.221583      -0.031781
                                                         0.100000       0.095870

                          2       1    1s                2.518953       0.997688

                          2       2    2px               2.518953       1.772979
                          2       2    2py               2.518953       1.772979
                          2       2    2pz               2.518953       1.772979

                          3       1    1s         

     AE Potential information for                                            ALL

       Description:                                       All-electron potential
                                          Krack, Parrinello, PCCP 2, 2105 (2000)

       Gaussian exponent of the core charge distribution:               2.834467
       Electronic configuration (s p d ...):                           6  10   0


 MOLECULE KIND INFORMATION


 All atoms are their own molecule, skipping detailed information


 TOTAL NUMBERS AND MAXIMUM NUMBERS

  Total number of            - Atomic kinds:                                   3
                             - Atoms:                                          9
                             - Shell sets:                                    19
                             - Shells:                                        47
                             - Primitive Cartesian functions:                 66
                             - Cartesian basis functions:                     85
                             - Spherical basis functions:                     85

  Maximum angular momentum of the orbital basis functions:                     1


 MODULE QUICKSTEP: ATOMIC COORDINATES IN ANGSTROM

   Atom Kind Element         X             Y             Z       Z(eff)     Mass
      1    1 C     6     15.158056     16.227972     14.979929   6.0000  12.0107
      2    1 C     6     15.521742     13.713265     14.926768   6.0000  12.0107
      3    1 C     6     13.744943     16.216376     15.147010   6.0000  12.0107
      4    2 N     7     15.104619     12.628025     14.971638   7.0000  14.0067
      5    2 N     7     12.590375     16.170347     15.283404   7.0000  14.0067
      6    2 N     7     17.286023     15.337933     14.724644   7.0000  14.0067
      7    1 C     6     15.989894     15.056128     14.876814   6.0000  12.0107
      8    3 S    16     17.409625     16.963781     14.716596  16.0000  32.0650
      9    2 N     7     15.842112     17.371975     14.903649   7.0000  14.0067



 SCF PARAMETERS         Density guess:                                    ATOMIC
                        --------------------------------------------------------
                        max_scf:                                             500
                        max_scf_history:                                       0
                        max_diis:                                              4
                        --------------------------------------------------------
                        eps_scf:                                        1.00E-06
                        eps_scf_history:                                0.00E+00
                        eps_diis:                                       1.00E-01
                        eps_eigval:                                     1.00E-05
                        --------------------------------------------------------
                        level_shift [a.u.]:                             0.000000
                        added MOs                                        51    0
                        --------------------------------------------------------
                        Mixing method:                            BROYDEN_MIXING
                                                charge density mixing in g-space
                        --------------------------------------------------------
                        No outer SCF

 PW_GRID| Information for grid number                                          1
 PW_GRID| Grid distributed over                                    32 processors
 PW_GRID| Real space group dimensions                                    32    1
 PW_GRID| the grid is blocked:                                                NO
 PW_GRID| Cutoff [a.u.]                                                    250.0
 PW_GRID| spherical cutoff:                                                   NO
 PW_GRID|   Bounds   1           -202     202                Points:         405
 PW_GRID|   Bounds   2           -202     202                Points:         405
 PW_GRID|   Bounds   3           -202     202                Points:         405
 PW_GRID| Volume element (a.u.^3)  0.2743E-02     Volume (a.u.^3)    182205.0337
 PW_GRID| Grid span                                                    FULLSPACE
 PW_GRID|   Distribution                         Average         Max         Min
 PW_GRID|   G-Vectors                          2075941.4     2076030     2075625
 PW_GRID|   G-Rays                                5125.8        5126        5125
 PW_GRID|   Real Space Points                  2075941.4     2132325     1968300

 PW_GRID| Information for grid number                                          2
 PW_GRID| Number of the reference grid                                         1
 PW_GRID| Grid distributed over                                    32 processors
 PW_GRID| Real space group dimensions                                    32    1
 PW_GRID| the grid is blocked:                                                NO
 PW_GRID| Cutoff [a.u.]                                                     83.3
 PW_GRID| spherical cutoff:                                                   NO
 PW_GRID|   Bounds   1           -120     119                Points:         240
 PW_GRID|   Bounds   2           -120     119                Points:         240
 PW_GRID|   Bounds   3           -120     119                Points:         240
 PW_GRID| Volume element (a.u.^3)  0.1318E-01     Volume (a.u.^3)    182205.0337
 PW_GRID| Grid span                                                    FULLSPACE
 PW_GRID|   Distribution                         Average         Max         Min
 PW_GRID|   G-Vectors                           432000.0      432480      431760
 PW_GRID|   G-Rays                                1800.0        1802        1799
 PW_GRID|   Real Space Points                   432000.0      460800      403200

 PW_GRID| Information for grid number                                          3
 PW_GRID| Number of the reference grid                                         1
 PW_GRID| Grid distributed over                                    32 processors
 PW_GRID| Real space group dimensions                                    32    1
 PW_GRID| the grid is blocked:                                                NO
 PW_GRID| Cutoff [a.u.]                                                     27.8
 PW_GRID| spherical cutoff:                                                   NO
 PW_GRID|   Bounds   1            -67      67                Points:         135
 PW_GRID|   Bounds   2            -67      67                Points:         135
 PW_GRID|   Bounds   3            -67      67                Points:         135
 PW_GRID| Volume element (a.u.^3)  0.7406E-01     Volume (a.u.^3)    182205.0337
 PW_GRID| Grid span                                                    FULLSPACE
 PW_GRID|   Distribution                         Average         Max         Min
 PW_GRID|   G-Vectors                            76886.7       77085       76680
 PW_GRID|   G-Rays                                 569.5         571         568
 PW_GRID|   Real Space Points                    76886.7       91125       72900

 PW_GRID| Information for grid number                                          4
 PW_GRID| Number of the reference grid                                         1
 PW_GRID| Grid distributed over                                    32 processors
 PW_GRID| Real space group dimensions                                    32    1
 PW_GRID| the grid is blocked:                                                NO
 PW_GRID| Cutoff [a.u.]                                                      9.3
 PW_GRID| spherical cutoff:                                                   NO
 PW_GRID|   Bounds   1            -40      39                Points:          80
 PW_GRID|   Bounds   2            -40      39                Points:          80
 PW_GRID|   Bounds   3            -40      39                Points:          80
 PW_GRID| Volume element (a.u.^3)  0.3559         Volume (a.u.^3)    182205.0337
 PW_GRID| Grid span                                                    FULLSPACE
 PW_GRID|   Distribution                         Average         Max         Min
 PW_GRID|   G-Vectors                            16000.0       16160       15920
 PW_GRID|   G-Rays                                 200.0         202         199
 PW_GRID|   Real Space Points                    16000.0       19200       12800

 POISSON| Solver                                                         WAVELET
 POISSON| Wavelet| Scaling function                                           40
 POISSON| Periodicity                                                       NONE

 RS_GRID| Information for grid number                                          1
 RS_GRID|   Bounds   1           -202     202                Points:         405
 RS_GRID|   Bounds   2           -202     202                Points:         405
 RS_GRID|   Bounds   3           -202     202                Points:         405
 RS_GRID| Real space distribution over                                  2 groups
 RS_GRID| Real space distribution along direction                              1
 RS_GRID| Border size                                                         33
 RS_GRID| Real space distribution over                                  4 groups
 RS_GRID| Real space distribution along direction                              2
 RS_GRID| Border size                                                         33
 RS_GRID| Real space distribution over                                  4 groups
 RS_GRID| Real space distribution along direction                              3
 RS_GRID| Border size                                                         33
 RS_GRID|   Distribution                         Average         Max         Min
 RS_GRID|   Planes                                 268.5         269         268
 RS_GRID|   Distribution                         Average         Max         Min
 RS_GRID|   Planes                                 167.2         168         167
 RS_GRID|   Distribution                         Average         Max         Min
 RS_GRID|   Planes                                 167.2         168         167

 RS_GRID| Information for grid number                                          2
 RS_GRID|   Bounds   1           -120     119                Points:         240
 RS_GRID|   Bounds   2           -120     119                Points:         240
 RS_GRID|   Bounds   3           -120     119                Points:         240
 RS_GRID| Real space distribution over                                  2 groups
 RS_GRID| Real space distribution along direction                              1
 RS_GRID| Border size                                                         35
 RS_GRID| Real space distribution over                                  4 groups
 RS_GRID| Real space distribution along direction                              2
 RS_GRID| Border size                                                         35
 RS_GRID| Real space distribution over                                  4 groups
 RS_GRID| Real space distribution along direction                              3
 RS_GRID| Border size                                                         35
 RS_GRID|   Distribution                         Average         Max         Min
 RS_GRID|   Planes                                 190.0         190         190
 RS_GRID|   Distribution                         Average         Max         Min
 RS_GRID|   Planes                                 130.0         130         130
 RS_GRID|   Distribution                         Average         Max         Min
 RS_GRID|   Planes                                 130.0         130         130

 RS_GRID| Information for grid number                                          3
 RS_GRID|   Bounds   1            -67      67                Points:         135
 RS_GRID|   Bounds   2            -67      67                Points:         135
 RS_GRID|   Bounds   3            -67      67                Points:         135
 RS_GRID| Real space fully replicated
 RS_GRID| Group size                                                           1

 RS_GRID| Information for grid number                                          4
 RS_GRID|   Bounds   1            -40      39                Points:          80
 RS_GRID|   Bounds   2            -40      39                Points:          80
 RS_GRID|   Bounds   3            -40      39                Points:          80
 RS_GRID| Real space fully replicated
 RS_GRID| Group size                                                           1

  HFX_INFO| Replica ID:                                                        1
  HFX_INFO| FRACTION:                                               0.2500000000
  HFX_INFO| Interaction Potential:                                       COULOMB
  HFX_INFO| EPS_SCHWARZ:                                                 1.0E-10
  HFX_INFO| EPS_SCHWARZ_FORCES                                           1.0E-08
  HFX_INFO| EPS_STORAGE_SCALING:                                         1.0E+00
  HFX_INFO| NBINS:                                                            64
  HFX_INFO| BLOCK_SIZE:                                                        1
  HFX_INFO| Number of periodic shells considered:                           NONE
  HFX_INFO| Number of periodic cells considered:                            NONE


 OVERLAP MATRIX CONDITION NUMBER
 1-Norm Condition Number (Estimate)
   CN : |A|*|A^-1|:  1.280E+001 *  4.832E+002   = 6.187E+003  Log(1-CN):  3.7914
 1-Norm and 2-Norm Condition Numbers using Diagonalization
   CN : |A|*|A^-1|:  1.280E+001 *  4.968E+002   = 6.361E+003  Log(1-CN):  3.8035
   CN : max/min ev:  6.477E+000 /  4.070E-003   = 1.591E+003  Log(2-CN):  3.2018

 Number of electrons:                                                         68
 Number of occupied orbitals:                                                 34
 Number of molecular orbitals:                                                85

 Number of orbital functions:                                                 85
 Number of independent orbital functions:                                     85

 Extrapolation method: initial_guess

 Atomic guess: The first density matrix is obtained in terms of atomic orbitals
               and electronic configurations assigned to each atomic kind

 Guess for atomic kind: C

 Electronic structure
    Total number of core electrons                                          0.00
    Total number of valence electrons                                       6.00
    Total number of electrons                                               6.00
    Multiplicity                                                   not specified
    S      2.00  2.00
    P      2.00


 *******************************************************************************
                  Iteration          Convergence                     Energy [au]
 *******************************************************************************
                          1        0.110940                     -36.966846197933
                          2        0.618479E-01                 -36.973380131832
                          3        0.312040E-03                 -36.976281169724
                          4        0.543046E-05                 -36.976281232084
                          5        0.506043E-09                 -36.976281232104

 Energy components [Hartree]           Total Energy ::          -36.976281232104
                                        Band Energy ::          -20.794821508944
                                     Kinetic Energy ::           36.488299270274
                                   Potential Energy ::          -73.464580502377
                                      Virial (-V/T) ::            2.013373655983
                                        Core Energy ::          -49.914993802944
                                          XC Energy ::           -4.745664989265
                                     Coulomb Energy ::           17.684377560105

 Orbital energies  State     L     Occupation   Energy[a.u.]          Energy[eV]

                       1     0          2.000      -9.777613         -266.062376
                       2     0          2.000      -0.465310          -12.661731

                       1     1          2.000      -0.154488           -4.203828


 Total Electron Density at R=0:                                        77.917232

 Guess for atomic kind: N

 Electronic structure
    Total number of core electrons                                          0.00
    Total number of valence electrons                                       7.00
    Total number of electrons                                               7.00
    Multiplicity                                                   not specified
    S      2.00  2.00
    P      3.00


 *******************************************************************************
                  Iteration          Convergence                     Energy [au]
 *******************************************************************************
                          1        0.395400                     -53.293349372466
                          2        0.225125                     -53.331168721159
                          3        0.860871E-03                 -53.359344571212
                          4        0.144713E-03                 -53.359344854486
                          5        0.187084E-05                 -53.359344864503
                          6        0.788718E-06                 -53.359344864504

 Energy components [Hartree]           Total Energy ::          -53.359344864504
                                        Band Energy ::          -30.026500782069
                                     Kinetic Energy ::           52.335746944580
                                   Potential Energy ::         -105.695091809084
                                      Virial (-V/T) ::            2.019558293894
                                        Core Energy ::          -72.545816435736
                                          XC Energy ::           -6.074236140041
                                     Coulomb Energy ::           25.260707711273

 Orbital energies  State     L     Occupation   Energy[a.u.]          Energy[eV]

                       1     0          2.000     -13.929313         -379.035885
                       2     0          2.000      -0.691080          -18.805237

                       1     1          3.000      -0.261905           -7.126799


 Total Electron Density at R=0:                                       127.566392

 Guess for atomic kind: S

 Electronic structure
    Total number of core electrons                                          0.00
    Total number of valence electrons                                      16.00
    Total number of electrons                                              16.00
    Multiplicity                                                   not specified
    S      2.00  2.00  2.00
    P      6.00  4.00


 *******************************************************************************
                  Iteration          Convergence                     Energy [au]
 *******************************************************************************
                          1        0.417945                    -392.420703940051
                          2        0.139114                    -392.432563895978
                          3        0.469394E-01                -392.437515911867
                          4        0.117351E-03                -392.438255341467
                          5        0.344555E-05                -392.438255344119
                          6        0.101721E-07                -392.438255344126

 Energy components [Hartree]           Total Energy ::         -392.438255344126
                                        Band Energy ::         -225.004450500919
                                     Kinetic Energy ::          384.765520351118
                                   Potential Energy ::         -777.203775695244
                                      Virial (-V/T) ::            2.019941326827
                                        Core Energy ::         -543.621259380045
                                          XC Energy ::          -23.955983502325
                                     Coulomb Energy ::          175.138987538244

 Orbital energies  State     L     Occupation   Energy[a.u.]          Energy[eV]

                       1     0          2.000     -86.940875        -2365.781526
                       2     0          2.000      -7.574798         -206.120725
                       3     0          2.000      -0.622434          -16.937283

                       1     1          6.000      -5.619289         -152.908627
                       2     1          4.000      -0.253126           -6.887911


 Total Electron Density at R=0:                                      1678.491278
 Re-scaling the density matrix to get the right number of electrons
                  # Electrons              Trace(P)               Scaling factor
                           68                68.000                        1.000


 SCF WAVEFUNCTION OPTIMIZATION

  Step     Update method      Time    Convergence         Total energy    Change
  ------------------------------------------------------------------------------

  HFX_MEM_INFO| Est. max. program size before HFX [MiB]:                    2172
  HFX_MEM_INFO| Number of cart. primitive ERI's calculated:            124637824
  HFX_MEM_INFO| Number of sph. ERI's calculated:                         8083416
  HFX_MEM_INFO| Number of sph. ERI's stored in-core:                     8083416
  HFX_MEM_INFO| Number of sph. ERI's stored on disk:                           0
  HFX_MEM_INFO| Number of sph. ERI's calculated on the fly:                    0
  HFX_MEM_INFO| Total memory consumption ERI's RAM [MiB]:                     15
  HFX_MEM_INFO| Whereof max-vals [MiB]:                                        2
  HFX_MEM_INFO| Total compression factor ERI's RAM:                         4.25
  HFX_MEM_INFO| Total memory consumption ERI's disk [MiB]:                     0
  HFX_MEM_INFO| Total compression factor ERI's disk:                        0.00
  HFX_MEM_INFO| Size of density/Fock matrix [MiB]:                             0
  HFX_MEM_INFO| Size of buffers [MiB]:                                         0
  HFX_MEM_INFO| Est. max. program size after HFX  [MiB]:                    3193

     1 NoMix/Diag. 0.10E+00    2.5     0.69575163      -763.0057750446 -7.63E+02
     2 Broy./Diag. 0.10E+00    1.6     0.06441928      -756.7181766177  6.29E+00
     3 Broy./Diag. 0.10E+00    1.6     0.26288050      -754.3280252858  2.39E+00
     4 Broy./Diag. 0.10E+00    1.6     0.41013880      -756.2000239611 -1.87E+00
     5 Broy./Diag. 0.10E+00    1.6     0.18213555      -759.4599246726 -3.26E+00
     6 Broy./Diag. 0.10E+00    1.6     0.09525411      -760.6789447782 -1.22E+00
     7 Broy./Diag. 0.10E+00    1.6     0.05231625      -761.0951131051 -4.16E-01
     8 Broy./Diag. 0.10E+00    1.7     0.10972221      -760.8374784796  2.58E-01
     9 Broy./Diag. 0.10E+00    1.7     0.03594242      -760.5551629723  2.82E-01
    10 Broy./Diag. 0.10E+00    1.8     0.01389017      -760.4441495188  1.11E-01
    11 Broy./Diag. 0.10E+00    1.7     0.03733803      -760.3142133607  1.30E-01
    12 Broy./Diag. 0.10E+00    1.8     0.01404348      -760.2081860989  1.06E-01
    13 Broy./Diag. 0.10E+00    1.8     0.00429410      -760.1955745345  1.26E-02
    14 Broy./Diag. 0.10E+00    1.7     0.00221797      -760.2222681958 -2.67E-02
    15 Broy./Diag. 0.10E+00    1.7     0.01539094      -760.2026191615  1.96E-02
    16 Broy./Diag. 0.10E+00    1.7     0.01910386      -760.1117305500  9.09E-02
    17 Broy./Diag. 0.10E+00    1.8     0.00836577      -760.0321339092  7.96E-02
    18 Broy./Diag. 0.10E+00    1.8     0.00782093      -759.9958393626  3.63E-02
    19 Broy./Diag. 0.10E+00    1.8     0.01230074      -760.0033332444 -7.49E-03
    20 Broy./Diag. 0.10E+00    1.8     0.00288376      -760.0313108855 -2.80E-02
    21 Broy./Diag. 0.10E+00    1.7     0.03974551      -760.1461724154 -1.15E-01
    22 Broy./Diag. 0.10E+00    1.7     0.04272363      -760.3637503125 -2.18E-01
    23 Broy./Diag. 0.10E+00    1.7     0.01328101      -760.4988447867 -1.35E-01
    24 Broy./Diag. 0.10E+00    1.7     0.00746070      -760.5076983977 -8.85E-03
    25 Broy./Diag. 0.10E+00    1.8     0.02275053      -760.4369351488  7.08E-02
    26 Broy./Diag. 0.10E+00    1.8     0.01283162      -760.3494609907  8.75E-02
    27 Broy./Diag. 0.10E+00    1.8     0.00469054      -760.3125764153  3.69E-02
    28 Broy./Diag. 0.10E+00    1.8     0.00450611      -760.2975699694  1.50E-02
    29 Broy./Diag. 0.10E+00    1.8     0.00078159      -760.2937298496  3.84E-03
    30 Broy./Diag. 0.10E+00    1.7     0.00185309      -760.2877841336  5.95E-03
    31 Broy./Diag. 0.10E+00    1.7     0.00328150      -760.2634752843  2.43E-02
    32 Broy./Diag. 0.10E+00    1.8     0.01275802      -760.2775484145 -1.41E-02
    33 Broy./Diag. 0.10E+00    1.8     0.00820629      -760.3262988116 -4.88E-02
    34 Broy./Diag. 0.10E+00    1.8     0.00325968      -760.3504609753 -2.42E-02
    35 Broy./Diag. 0.10E+00    1.8     0.00269193      -760.3446711441  5.79E-03
    36 Broy./Diag. 0.10E+00    1.8     0.00099992      -760.3344660730  1.02E-02
    37 Broy./Diag. 0.10E+00    1.8     0.00088465      -760.3378383272 -3.37E-03
    38 Broy./Diag. 0.10E+00    1.7     0.00136301      -760.3359386552  1.90E-03
    39 Broy./Diag. 0.10E+00    1.7     0.00074657      -760.3349902561  9.48E-04
    40 Broy./Diag. 0.10E+00    1.7     0.00070187      -760.3421318525 -7.14E-03
    41 Broy./Diag. 0.10E+00    1.8     0.00161723      -760.3416223400  5.10E-04
    42 Broy./Diag. 0.10E+00    1.8     0.00167881      -760.3401734204  1.45E-03
    43 Broy./Diag. 0.10E+00    1.8     0.00068953      -760.3462423596 -6.07E-03
    44 Broy./Diag. 0.10E+00    1.8     0.00045854      -760.3482085378 -1.97E-03
    45 Broy./Diag. 0.10E+00    1.8     0.00057646      -760.3450491195  3.16E-03
    46 Broy./Diag. 0.10E+00    1.7     0.00032837      -760.3404957149  4.55E-03
    47 Broy./Diag. 0.10E+00    1.7     0.00015812      -760.3393745057  1.12E-03
    48 Broy./Diag. 0.10E+00    1.7     0.00008117      -760.3393551506  1.94E-05
    49 Broy./Diag. 0.10E+00    1.8     0.00039749      -760.3382047709  1.15E-03
    50 Broy./Diag. 0.10E+00    1.8     0.00032310      -760.3388455098 -6.41E-04
    51 Broy./Diag. 0.10E+00    1.9     0.00019938      -760.3406739009 -1.83E-03
    52 Broy./Diag. 0.10E+00    1.8     0.00021976      -760.3405590527  1.15E-04
    53 Broy./Diag. 0.10E+00    1.8     0.00013567      -760.3398316613  7.27E-04
    54 Broy./Diag. 0.10E+00    1.7     0.00019517      -760.3404255571 -5.94E-04
    55 Broy./Diag. 0.10E+00    1.7     0.00003334      -760.3410465586 -6.21E-04
    56 Broy./Diag. 0.10E+00    1.8     0.00017173      -760.3407090532  3.38E-04
    57 Broy./Diag. 0.10E+00    1.8     0.00006166      -760.3402302180  4.79E-04
    58 Broy./Diag. 0.10E+00    1.8     0.00022529      -760.3406537649 -4.24E-04
    59 Broy./Diag. 0.10E+00    1.8     0.00005008      -760.3413732760 -7.20E-04
    60 Broy./Diag. 0.10E+00    1.8     0.00011115      -760.3413498403  2.34E-05
    61 Broy./Diag. 0.10E+00    1.8     0.00007646      -760.3409802998  3.70E-04
    62 Broy./Diag. 0.10E+00    1.7     0.00005967      -760.3409654364  1.49E-05
    63 Broy./Diag. 0.10E+00    1.7     0.00003276      -760.3411419509 -1.77E-04
    64 Broy./Diag. 0.10E+00    1.7     0.00008143      -760.3410107136  1.31E-04
    65 Broy./Diag. 0.10E+00    1.8     0.00003167      -760.3407493248  2.61E-04
    66 Broy./Diag. 0.10E+00    1.8     0.00002266      -760.3406111350  1.38E-04
    67 Broy./Diag. 0.10E+00    1.8     0.00001917      -760.3405646594  4.65E-05
    68 Broy./Diag. 0.10E+00    1.8     0.00000963      -760.3406247677 -6.01E-05
    69 Broy./Diag. 0.10E+00    1.8     0.00000546      -760.3406655806 -4.08E-05
    70 Broy./Diag. 0.10E+00    1.7     0.00001529      -760.3406861523 -2.06E-05
    71 Broy./Diag. 0.10E+00    1.7     0.00000678      -760.3407222961 -3.61E-05
    72 Broy./Diag. 0.10E+00    1.7     0.00003415      -760.3406872835  3.50E-05
    73 Broy./Diag. 0.10E+00    1.8     0.00000560      -760.3406540955  3.32E-05
    74 Broy./Diag. 0.10E+00    1.8     0.00001993      -760.3407080531 -5.40E-05
    75 Broy./Diag. 0.10E+00    1.8     0.00000426      -760.3407342270 -2.62E-05
    76 Broy./Diag. 0.10E+00    1.8     0.00000844      -760.3407150131  1.92E-05
    77 Broy./Diag. 0.10E+00    1.8     0.00000916      -760.3407223689 -7.36E-06
    78 Broy./Diag. 0.10E+00    1.7     0.00000480      -760.3407429473 -2.06E-05
    79 Broy./Diag. 0.10E+00    1.8     0.00000191      -760.3407456146 -2.67E-06
    80 Broy./Diag. 0.10E+00    1.7     0.00000581      -760.3407480298 -2.42E-06
    81 Broy./Diag. 0.10E+00    1.8     0.00000192      -760.3407399169  8.11E-06
    82 Broy./Diag. 0.10E+00    1.8     0.00000451      -760.3407385196  1.40E-06
    83 Broy./Diag. 0.10E+00    1.8     0.00000194      -760.3407489193 -1.04E-05
    84 Broy./Diag. 0.10E+00    1.7     0.00000311      -760.3407491702 -2.51E-07
    85 Broy./Diag. 0.10E+00    1.7     0.00000196      -760.3407458656  3.30E-06
    86 Broy./Diag. 0.10E+00    1.7     0.00000078      -760.3407450233  8.42E-07

  *** SCF run converged in    86 steps ***


  Electronic density on regular grids:        -46.0577515028       21.9422484972
  Core density on regular grids:               68.0000000000        0.0000000000
  Hard and soft densities (Lebedev):         -119.2796183038      -97.3373685257
  Total Rho_soft + Rho1_hard - Rho1_soft      -68.0000012809
  Total charge density (r-space):              -0.0000012809
  Total Rho_soft + Rho0_soft (g-space):        -0.0000016370

  Overlap energy of the core charge distribution:               0.00004933533805
  Self energy of the core charge distribution:               -479.59278557778333
  Core Hamiltonian energy:                                   -280.62159661053926
  Hartree energy:                                             105.88218307146022
  Exchange-correlation energy:                                -17.08657348624964
  Hartree-Fock Exchange energy:                               -17.88989784330504

  GAPW| Exc from hard and soft atomic rho1:                   -38.74712701782066
  GAPW| local Eh = 1 center integrals:                        -32.28499689440770

  Total energy:                                              -760.34074502330748

 !-----------------------------------------------------------------------------!
                     Mulliken Population Analysis

 #  Atom  Element  Kind  Atomic population                           Net charge
       1     C        1          5.714113                              0.285887
       2     C        1          5.509201                              0.490799
       3     C        1          5.509234                              0.490766
       4     N        2          7.601213                             -0.601213
       5     N        2          7.601177                             -0.601177
       6     N        2          7.562879                             -0.562879
[...]
 library.
 https://doi.org/10.1016/j.parco.2014.03.012

 A. Marek, V. Blum, R. Johanni, V. Havu, B. Lang, T. Auckenthaler, A. Heinecke, 
 H. Bungartz, H. Lederer.
 J. Phys. Condens. Matter 26, 213201 (2014).
 The ELPA library: scalable parallel eigenvalue solutions for electronic 
 structure theory and computational science.
 https://doi.org/10.1088/0953-8984/26/21/213201

 M. Guidon, J. Hutter, J. VandeVondele.
 J. Chem. Theory Comput. 5, 3010-3021 (2009).
 Robust Periodic Hartree-Fock Exchange for Large-Scale Simulations Using 
 Gaussian Basis Sets.
 https://doi.org/10.1021/ct900494g

 M. Guidon, F. Schiffmann, J. Hutter, J. VandeVondele.
 J. Chem. Phys. 128, 214104 (2008).
 Ab initio molecular dynamics using hybrid density functionals.
 https://doi.org/10.1063/1.2931945

 L. Genovese, T. Deutsch, S. Goedecker.
 J. Chem. Phys. 127, 054704 (2007).
 Efficient and accurate three-dimensional Poisson solver for surface problems.
 https://doi.org/10.1063/1.2754685

 J. VandeVondele, J. Hutter.
 J. Chem. Phys. 127, 114105 (2007).
 Gaussian basis sets for accurate calculations on molecular systems in gas and 
 condensed phases.
 https://doi.org/10.1063/1.2770708

 L. Genovese, T. Deutsch, A. Neelov, S. Goedecker, G. Beylkin.
 J. Chem. Phys. 125, 074105 (2006).
 Efficient solution of Poisson's equation with free boundary conditions.
 https://doi.org/10.1063/1.2335442

 M. Iannuzzi, T. Chassaing, T. Wallman, J. Hutter.
 CHIMIA 59, 499-503 (2005).
 Ground and excited state density functional calculations with the Gaussian and 
 augmented-plane-wave method.
 https://doi.org/10.2533/000942905777676164

 M. Frigo, S. G. Johnson.
 Proc. IEEE 93, 216-231 (2005).
 The design and implementation of FFTW3.
 https://doi.org/10.1109/JPROC.2004.840301

 R. L. Martin.
 J. Chem. Phys. 118, 4775-4777 (2003).
 Natural transition orbitals.
 https://doi.org/10.1063/1.1558471

 M. Krack, M. Parrinello.
 Phys. Chem. Chem. Phys. 2, 2105-2112 (2000).
 All-electron ab-initio molecular dynamics.
 https://doi.org/10.1039/b001167n

 G. Lippert, J. Hutter, M. Parrinello.
 Theor. Chem. Acc. 103, 124-140 (1999).
 The Gaussian and augmented-plane-wave density functional method for ab initio 
 molecular dynamics simulations.
 https://doi.org/10.1007/s002140050523

 J. P. Perdew, K. Burke, M. Ernzerhof.
 Phys. Rev. Lett. 77, 3865-3868 (1996).
 Generalized gradient approximation made simple.
 https://doi.org/10.1103/PhysRevLett.77.3865


 -------------------------------------------------------------------------------
 -                                                                             -
 -                                T I M I N G                                  -
 -                                                                             -
 -------------------------------------------------------------------------------
 SUBROUTINE                       CALLS  ASD         SELF TIME        TOTAL TIME
                                MAXIMUM       AVERAGE  MAXIMUM  AVERAGE  MAXIMUM
 CP2K                                 1  1.0    0.019    0.032  404.235  404.244
 qs_energies                          1  2.0    0.000    0.000  403.547  403.553
 qs_energies_properties               1  3.0    0.000    0.000  249.623  249.627
 tddfpt                               1  4.0    0.000    0.000  249.623  249.627
 tddfpt_energies                      1  5.0    0.000    0.000  249.614  249.618
 tddfpt_davidson_solver               1  6.0    0.000    0.001  248.648  248.652
 tddfpt_compute_Aop_evects            8  7.0    0.000    0.000  247.922  247.925
 fhxc_kernel                          8  8.0    0.005    0.006  233.970  233.973
 scf_env_do_scf                       1  3.0    0.000    0.000  151.648  151.650
 scf_env_do_scf_inner_loop           86  4.0    0.002    0.004  151.648  151.650
 fft_wrap_pw1pw2                   5020 11.0    0.079    0.103  144.075  146.044
 pw_poisson_solve                   246  9.3    2.815    3.453  141.242  142.012
 fft_wrap_pw1pw2_250               3538 12.0    6.759    7.275  139.762  141.478
 qs_ks_update_qs_env                 86  5.0    0.001    0.001  110.752  110.754
 rebuild_ks_matrix                   86  6.0    0.000    0.000  110.745  110.747
 qs_ks_build_kohn_sham_matrix        86  7.0    0.011    0.012  110.745  110.747
 fft3d_ps                          5020 13.0   50.831   55.930  106.524  110.056
 tddfpt_apply_coulomb               160  9.0    0.002    0.002  105.456  106.175
 ps_wavelet_solve                   246 10.3   76.695   82.096   98.356   98.735
 mp_alltoall_d54                    246 11.3   12.119   76.537   12.119   76.537
 xc_pw_derive                      1479 11.0    0.009    0.010   67.318   68.470
 qs_rho_update_rho_low              248  7.6    0.003    0.003   64.405   64.406
 calculate_rho_elec                 248  8.6    1.941    1.995   64.273   64.274
 tddfpt_apply_xc_analytic           160  9.0    0.407    0.445   57.137   57.487
 mp_alltoall_z22v                  5020 15.0   40.565   50.602   40.565   50.602
 xc_pw_divergence                   246 10.7    0.005    0.006   44.844   45.790
 density_rs2pw                      248  9.6    0.008    0.009   34.822   36.407
 xc_calc_2nd_deriv_analytical       800 10.4    2.783    3.057   33.440   33.903
 qs_vxc_create                       86  8.0    0.001    0.001   33.327   33.331
 xc_vxc_pw_create                    86  9.0    0.905    0.970   33.326   33.330
 yz_to_x                           2470 14.2    6.727    7.325   26.561   32.177
 x_to_yz                           2550 13.7    8.306    9.592   29.037   31.770
 grid_collocate_task_list           248  9.6   26.873   28.166   26.873   28.166
 integrate_v_rspace                 246  9.0    0.006    0.006   26.986   27.154
 potential_pw2rs                    246 10.0    0.058    0.063   26.462   26.551
 transfer_pw2rs                    1231 10.9    0.014    0.017   20.346   20.970
 prepare_gapw_den                   247  8.6    0.003    0.003   18.608   18.916
 put_rho0_on_grid                   247  9.6    1.962    2.053   18.302   18.610
 transfer_rs2pw                    1240 10.6    0.018    0.024   17.210   18.557
 gspace_mixing                       85  5.0    0.665    0.684   18.129   18.131
 mp_waitany                       32626 12.7   14.847   17.376   14.847   17.376
 integrate_four_center              406  9.8    8.018   16.390   17.230   17.280
 xc_rho_set_and_dset_create          87 10.0    0.500    0.548   16.594   17.136
 mp_sync                           2173 11.4    8.448   16.160    8.448   16.160
 mp_alltoall_d11v                 14576 11.6   10.103   14.802   10.103   14.802
 transfer_pw2rs_250                 493 11.6    5.316    5.795   13.507   14.323
 broyden_mixing                      85  6.0   13.720   14.009   14.072   14.104
 mp_alltoall_d45                    247 11.3    9.030   13.981    9.030   13.981
 tddfpt_apply_hfx                     8  8.0    0.002    0.002   13.789   13.789
 tddft_hfx_matrix                   320  9.0    0.003    0.004   13.128   13.153
 transfer_rs2pw_250                 496 11.6    4.978    5.437   11.380   12.749
 pw_gather_p                       2470 13.2   11.614   12.731   11.614   12.731
 pw_scatter_p                      2550 12.7   11.291   11.823   11.291   11.823
 sum_up_and_integrate                86  8.0    0.001    0.001   10.190   10.242
 pw_derive                         2217 11.8    9.223    9.906    9.223    9.906
 integrate_vhg0_rspace              246  9.3    0.057    0.096    8.934    9.103
 cp2k_distribution_to_z_slices      246 10.3    2.304    2.848    6.522    7.201
 pw_copy                           3375 10.9    5.690    6.070    5.690    6.070
 pw_copy_to_array                  2470 13.2    4.591    5.430    4.591    5.430
 mp_sum_d                          3781  7.9    2.827    5.287    2.827    5.287
 pw_poisson_set                     247 10.3    0.005    0.005    4.937    5.279
 xc_functional_eval                1071 10.8    0.001    0.003    4.025    4.496
 pbe_lda_eval                      1071 11.8    4.024    4.494    4.024    4.494
 pw_axpy                           2628 10.7    3.922    4.327    3.922    4.327
 mp_waitall_1                    136786 13.7    3.593    4.248    3.593    4.248
 hfx_ks_matrix                       86  8.0    0.001    0.001    4.111    4.141
 fft_wrap_pw1pw2_90                 494 11.8    0.172    0.189    3.329    3.899
 transfer_pw2rs_90                  246 12.0    0.862    0.995    3.007    3.594
 rs_grid_zero                      1233 11.8    3.388    3.572    3.388    3.572
 transfer_pw2rs_30                  246 12.0    1.694    1.853    3.039    3.417
 pw_copy_from_array                2550 12.7    2.998    3.252    2.998    3.252
 pw_integral_ab_c1d_c1d_gs          246 10.3    2.678    2.877    3.060    3.205
 transfer_rs2pw_90                  248 11.6    0.831    0.934    2.750    2.868
 pw_zero                           2602 10.6    2.488    2.660    2.488    2.660
 transfer_rs2pw_30                  248 11.6    0.805    0.934    2.292    2.458
 mp_sendrecv_dv                   15376 12.6    2.075    2.260    2.075    2.260
 mp_sum_dm                         6793  9.8    1.059    1.593    1.059    1.593
 mp_isend_dv                      47326 13.5    0.343    1.589    0.343    1.589
 mp_max_i                           719  5.0    0.765    1.543    0.765    1.543
 qs_energies_init_hamiltonians        1  3.0    0.000    0.000    1.497    1.497
 Vh_1c_gg_integrals                 246  9.3    0.017    0.048    0.664    1.483
 build_core_hamiltonian_matrix        1  4.0    0.000    0.000    1.476    1.476
 overlap_condnum                      1  5.0    0.000    0.000    1.475    1.476
 dbcsr_complete_redistribute       3415 10.4    0.072    0.091    1.366    1.426
 copy_dbcsr_to_fm                  1114  9.2    0.008    0.009    1.265    1.396
 cp_dbcsr_sm_fm_multiply           1006  8.6    0.010    0.012    1.186    1.209
 prepare_dr1dr                      800 11.4    0.865    0.941    0.865    0.941
 fft_wrap_pw1pw2_30                 494 11.8    0.037    0.040    0.726    0.941
 transfer_rs2pw_10                  248 11.6    0.182    0.200    0.771    0.885
 cp_fm_diag_elpa                    136  7.2    0.000    0.000    0.882    0.883
 cp_fm_diag_elpa_base               136  8.2    0.758    0.872    0.826    0.876
 scale_and_distribute               492 11.3    0.582    0.860    0.582    0.860
 transfer_pw2rs_10                  246 12.0    0.242    0.268    0.779    0.838
 dbcsr_multiply_generic            1412 10.3    0.030    0.033    0.791    0.805
 init_scf_run                         1  3.0    0.000    0.000    0.711    0.711
 scf_env_initial_rho_setup            1  4.0    0.000    0.000    0.706    0.706
 mp_alltoall_i11v                 11360 11.4    0.315    0.687    0.315    0.687
 calculate_xc_2nd_deriv_atom        160  9.0    0.057    0.205    0.146    0.687
 rs_gather_matrices                 246 10.0    0.004    0.006    0.387    0.605
 gaVxcgb_GC                         492  9.7    0.082    0.590    0.082    0.590
 grid_integrate_task_list           246 10.0    0.131    0.588    0.131    0.588
 pw_poisson_rebuild                 246 10.3    0.000    0.000    0.529    0.560
 ps_wavelet_create                    1 10.0    0.000    0.000    0.529    0.559
 RS_z_slice_distribution              1 11.0    0.459    0.516    0.529    0.559
 mp_alltoall_i22                   4530 11.4    0.446    0.550    0.446    0.550
 mp_isend_dm3                      8898 12.7    0.099    0.549    0.099    0.549
 cp_dbcsr_sm_fm_multiply_core      1006  9.6    0.002    0.002    0.529    0.542
 qs_scf_new_mos                      86  5.0    0.001    0.001    0.507    0.509
 pw_scale                           664  9.5    0.419    0.457    0.419    0.457
 update_ks_atom                     246  8.7    0.020    0.026    0.125    0.436
 mp_bcast_dm                       4428  9.7    0.105    0.424    0.105    0.424
 copy_fm_to_dbcsr                  2299  9.5    0.005    0.006    0.377    0.421
 mp_sum_dv                        15982  8.9    0.321    0.403    0.321    0.403
 dbcsr_desymmetrize_deep           1115 10.2    0.012    0.015    0.387    0.398
 qs_init_subsys                       1  2.0    0.001    0.001    0.381    0.381
 qs_env_setup                         1  3.0    0.000    0.000    0.379    0.379
 qs_env_rebuild_pw_env                2  3.5    0.000    0.000    0.379    0.379
 pw_env_rebuild                       1  5.0    0.000    0.000    0.379    0.379
 pw_grid_setup                        4  6.0    0.000    0.000    0.374    0.374
 pw_grid_setup_internal               4  7.0    0.005    0.006    0.374    0.374
 parallel_gemm_fm                  1542  8.2    0.001    0.001    0.349    0.374
 parallel_gemm_fm_cosma            1542  9.2    0.348    0.372    0.348    0.372
 tddfpt_construct_ground_state_       1  6.0    0.000    0.000    0.368    0.371
 cp_dbcsr_plus_fm_fm_t              246  8.3    0.002    0.002    0.349    0.351
 eigensolver_symm                    86  6.0    0.006    0.007    0.337    0.338
 cp_fm_power                          1  6.0    0.000    0.000    0.324    0.324
 pw_grid_sort                         4  8.0    0.219    0.225    0.307    0.316
 make_m2s                          2824 11.3    0.016    0.017    0.305    0.314
 calculate_vxc_atom                  86  8.0    0.032    0.071    0.306    0.307
 multiply_cannon                   1412 11.3    0.061    0.067    0.293    0.305
 powell_optimize                 204038 11.0    0.300    0.304    0.300    0.304
 tddfpt_orthonormalize_psi1_psi       9  6.9    0.008    0.008    0.285    0.285
 hybrid_alltoall_any               3939 13.4    0.015    0.017    0.102    0.283
 mp_irecv_dm3                      8898 12.7    0.028    0.280    0.028    0.280
 calculate_rho_atom                 741  9.6    0.194    0.276    0.194    0.276
 integrate_four_center_main         406 10.8    0.066    0.114    0.200    0.268
 make_images                       2824 12.3    0.038    0.040    0.249    0.259
 create_qs_kind_set                   1  2.0    0.000    0.000    0.254    0.256
 read_qs_kind                         3  3.0    0.059    0.074    0.254    0.256
 create_kernel_env                    1  6.0    0.000    0.000    0.221    0.248
 xc_prep_2nd_deriv                    1  7.0    0.000    0.000    0.221    0.248
 tddfpt_compute_ritz_vects            8  7.0    0.002    0.002    0.231    0.231
 calc_screening_functions             1 10.0    0.056    0.057    0.225    0.227
 mp_isendrecv_dv                  40424 12.2    0.083    0.214    0.083    0.214
 fft_wrap_pw1pw2_10                 494 11.8    0.008    0.009    0.178    0.208
 parser_read_line                 26233  4.0    0.004    0.004    0.196    0.198
 cp_fm_write_unformatted             25  7.0    0.190    0.197    0.191    0.197
 parser_read_line_low                34  5.0    0.006    0.146    0.192    0.195
 broadcast_input_information         34  6.0    0.006    0.006    0.186    0.193
 calc_pair_dist_radii                 1 10.0    0.053    0.055    0.183    0.186
 tddfpt_compute_residual_vects        7  7.0    0.000    0.000    0.176    0.176
 mp_bcast_i_src                     136  7.0    0.165    0.175    0.165    0.175
 tddfpt_print_nto_analysis            1  6.0    0.001    0.002    0.172    0.172
 multiply_cannon_loop              1412 12.3    0.035    0.036    0.161    0.168
 tddfpt_apply_energy_diff             8  8.0    0.000    0.000    0.163    0.163
 mp_bcast_b_src                     222  7.9    0.049    0.155    0.049    0.155
 integrate_four_center_bin        43975 11.8    0.134    0.154    0.134    0.154
 dbcsr_finalize                    7985 11.3    0.019    0.025    0.126    0.151
 tddfpt_write_restart                 1  6.0    0.004    0.142    0.146    0.147
 cp_fm_uplo_to_full                 137  9.2    0.036    0.140    0.036    0.140
 xc_2nd_deriv_of_r                  640 10.0    0.004    0.026    0.018    0.131
 calculate_rho_atom_coeff           248  8.6    0.030    0.034    0.129    0.130
 calculate_dm_sparse                 86  6.0    0.000    0.000    0.120    0.122
 make_images_sizes                 2824 13.3    0.002    0.002    0.099    0.118
 cp_fm_norm                           2  6.0    0.018    0.116    0.018    0.116
 mp_alltoall_i44                   2824 14.3    0.097    0.116    0.097    0.116
 cp_fm_trace_a1b1t1_aa            13090  8.0    0.026    0.028    0.115    0.115
 mp_cart_sub                       2230 11.2    0.108    0.111    0.108    0.111
 mp_cart_create                    1857 10.6    0.100    0.105    0.101    0.106
 mp_sum_l                          5480 10.5    0.088    0.105    0.088    0.105
 integrate_four_center_dist_KS      406 10.8    0.014    0.021    0.101    0.104
 cp_fm_redistribute_end             136  8.2    0.051    0.101    0.051    0.101
 arnoldi_conjugate_gradient           5  6.0    0.002    0.003    0.101    0.101
 xc_pw_smooth                        86 10.0    0.000    0.000    0.088    0.100
 sort_shells                          4  9.0    0.088    0.091    0.088    0.091
 dbcsr_merge_all                   6309 12.3    0.048    0.065    0.074    0.088
 cp_fm_geeig                         20  7.0    0.001    0.001    0.084    0.085
 tddfpt_orthogonalize_psi1_psi0       9  6.9    0.000    0.000    0.061    0.081
 dbcsr_create_new                 25938 11.5    0.052    0.056    0.071    0.075
 mp_rank_compare                   5020 14.0    0.065    0.074    0.065    0.074
 offload_free_buffer                254 10.1    0.057    0.072    0.057    0.072
 integrate_four_center_getP         406 10.8    0.013    0.014    0.058    0.068
 mixing_init                          1  5.0    0.063    0.068    0.067    0.068
 scf_post_calculation_gpw             1  3.0    0.000    0.000    0.067    0.067
 write_available_results              1  4.0    0.000    0.000    0.067    0.067
 write_mo_free_results                1  5.0    0.009    0.010    0.067    0.067
 make_images_data                  2824 13.3    0.016    0.019    0.050    0.064
 dbcsr_sym_matrix_vector_mult       768  7.0    0.006    0.006    0.057    0.060
 multiply_cannon_metrocomm3       11296 13.3    0.015    0.015    0.038    0.056
 write_mo_set_to_restart             86  5.0    0.002    0.053    0.051    0.055
 dbcsr_work_create                11660 12.2    0.029    0.034    0.045    0.054
 copy_fm_to_dbcsr_bc               2299 10.5    0.012    0.014    0.046    0.051
 dbcsr_iterator_start             33651 11.3    0.036    0.040    0.044    0.050
 write_mo_set_low                     5  6.0    0.000    0.000    0.049    0.050
 vxc_of_r_new                       344  9.0    0.001    0.007    0.007    0.049
 mp_irecv_dv                      46000 13.5    0.027    0.048    0.027    0.048
 dbcsr_data_new                  117900 12.5    0.039    0.043    0.039    0.043
 dbcsr_add_d                       1223  7.1    0.001    0.001    0.013    0.043
 dbcsr_add_anytype                 1223  8.1    0.002    0.005    0.012    0.042
 -------------------------------------------------------------------------------

 The number of warnings for this run is : 1
 
 -------------------------------------------------------------------------------
  **** **** ******  **  PROGRAM ENDED AT                 2025-06-23 19:34:46.042
 ***** ** ***  *** **   PROGRAM RAN ON                                  n2cn0564
 **    ****   ******    PROGRAM RAN BY                                  metdyn02
 ***** **    ** ** **   PROGRAM PROCESS ID                                740829
  **** **  *******  **  PROGRAM STOPPED IN /scratch/hpc-prf-metdyn/metdyn02_Remi
                                           /10_MOL/05_MOL/aUKBqsEOTmq69kFe5R_nOg
                                           /5k_set_final_qzvp/HAMFOS/mini-SZV/TD
                                           DFT/1e-4
