 DBCSR| CPU Multiplication driver                                           BLAS (U)
 DBCSR| Multrec recursion limit                                              512 (U)
 DBCSR| Multiplication stack size                                           1000 (D)
 DBCSR| Maximum elements for images                                    UNLIMITED (U)
 DBCSR| Multiplicative factor virtual images                                   1 (U)
 DBCSR| Use multiplication densification                                       T (D)
 DBCSR| Multiplication size stacks                                             3 (U)
 DBCSR| Use memory pool for CPU allocation                                     F (U)
 DBCSR| Number of 3D layers                                               SINGLE (U)
 DBCSR| Use MPI memory allocation                                              F (U)
 DBCSR| Use RMA algorithm                                                      F (U)
 DBCSR| Use Communication thread                                               T (U)
 DBCSR| Communication thread load                                             75 (D)
 DBCSR| MPI: My process id                                                     0
 DBCSR| MPI: Number of processes                                             216
 DBCSR| OMP: Current number of threads                                         4
 DBCSR| OMP: Max number of threads                                             4
 DBCSR| Split modifier for TAS multiplication algorithm                  1.0E+00 (U)


  **** **** ******  **  PROGRAM STARTED AT               2025-04-11 17:57:44.627
 ***** ** ***  *** **   PROGRAM STARTED ON                          i06r11c01s08
 **    ****   ******    PROGRAM STARTED BY                               di38fab
 ***** **    ** ** **   PROGRAM PROCESS ID                               3180066
  **** **  *******  **  PROGRAM STARTED IN /hppfs/scratch/04/di38fab/07_MOL_non_
                                           aug/05_MOL_non_aug/05_MOL/W4-11+ALK/h
                                           onc/cc-pVQZ/GW+BSE

 CP2K| version string:                 CP2K version 2025.1 (Development Version)
 CP2K| source code revision number:                             unknown revision
 CP2K| cp2kflags: omp libint fftw3 libxc parallel scalapack max_contr=4         
 CP2K| is freely available from                            https://www.cp2k.org/
 CP2K| Program compiled at                         Thu Apr 10 16:20:23 CEST 2025
 CP2K| Program compiled on                                               login01
 CP2K| Program compiled for                                        Supermuc-foss
 CP2K| Data directory path                  /hppfs/work/pn36zo/di38fab/cp2k/data
 CP2K| Input file name                                                    GW.inp

 GLOBAL| Force Environment number                                              1
 GLOBAL| Basis set file name            /hppfs/scratch/04/di38fab/04_TMD/BASIS_A
 GLOBAL| Potential file name            /hppfs/work/pn36zo/di38fab/cp2k/data/ALL
 GLOBAL| MM Potential file name                                     MM_POTENTIAL
 GLOBAL| Coordinate file name                                      __STD_INPUT__
 GLOBAL| Method name                                                        CP2K
 GLOBAL| Project name                                                       MoS2
 GLOBAL| Run type                                                         ENERGY
 GLOBAL| FFT library                                                       FFTW3
 GLOBAL| Diagonalization library                                       ScaLAPACK
 GLOBAL| DGEMM library                                                      BLAS
 GLOBAL| Orthonormality check for eigenvectors                          DISABLED
 GLOBAL| Matrix multiplication library                                 ScaLAPACK
 GLOBAL| All-to-all communication in single precision                          F
 GLOBAL| FFTs using library dependent lengths                                  F
 GLOBAL| Grid backend                                                       AUTO
 GLOBAL| Global print level                                               MEDIUM
 GLOBAL| MPI I/O enabled                                                       T
 GLOBAL| Total number of message passing processes                           216
 GLOBAL| Number of threads for this process                                    4
 GLOBAL| This output is from process                                           0
 GLOBAL| OpenMP stack size per thread (OMP_STACKSIZE)                    default
 GLOBAL| CPU model name             Intel(R) Xeon(R) Platinum 8174 CPU @ 3.10GHz

 MEMORY| system memory details [Kb]
 MEMORY|                        rank 0           min           max       average
 MEMORY| MemTotal             98436736      98436660      98436900      98436687
 MEMORY| MemFree              84260980      83959876      84346968      84165405
 MEMORY| Buffers                     0             0             0             0
 MEMORY| Cached                2410388       2386788       2433476       2409563
 MEMORY| Slab                  1212196       1206428       1264832       1238970
 MEMORY| SReclaimable           262240        260052        276964        265982
 MEMORY| MemLikelyFree        86933608      86642548      87025600      86840951


 *** Fundamental physical constants (SI units) ***

 *** Literature: B. J. Mohr and B. N. Taylor,
 ***             CODATA recommended values of the fundamental physical
 ***             constants: 2006, Web Version 5.1
 ***             http://physics.nist.gov/constants

 Speed of light in vacuum [m/s]                             2.99792458000000E+08
 Magnetic constant or permeability of vacuum [N/A**2]       1.25663706143592E-06
 Electric constant or permittivity of vacuum [F/m]          8.85418781762039E-12
 Planck constant (h) [J*s]                                  6.62606896000000E-34
 Planck constant (h-bar) [J*s]                              1.05457162825177E-34
 Elementary charge [C]                                      1.60217648700000E-19
 Electron mass [kg]                                         9.10938215000000E-31
 Electron g factor [ ]                                     -2.00231930436220E+00
 Proton mass [kg]                                           1.67262163700000E-27
 Fine-structure constant                                    7.29735253760000E-03
 Rydberg constant [1/m]                                     1.09737315685270E+07
 Avogadro constant [1/mol]                                  6.02214179000000E+23
 Boltzmann constant [J/K]                                   1.38065040000000E-23
 Atomic mass unit [kg]                                      1.66053878200000E-27
 Bohr radius [m]                                            5.29177208590000E-11

 *** Conversion factors ***

 [u] -> [a.u.]                                              1.82288848426455E+03
 [Angstrom] -> [Bohr] = [a.u.]                              1.88972613288564E+00
 [a.u.] = [Bohr] -> [Angstrom]                              5.29177208590000E-01
 [a.u.] -> [s]                                              2.41888432650478E-17
 [a.u.] -> [fs]                                             2.41888432650478E-02
 [a.u.] -> [J]                                              4.35974393937059E-18
 [a.u.] -> [N]                                              8.23872205491840E-08
 [a.u.] -> [K]                                              3.15774647902944E+05
 [a.u.] -> [kJ/mol]                                         2.62549961709828E+03
 [a.u.] -> [kcal/mol]                                       6.27509468713739E+02
 [a.u.] -> [Pa]                                             2.94210107994716E+13
 [a.u.] -> [bar]                                            2.94210107994716E+08
 [a.u.] -> [atm]                                            2.90362800883016E+08
 [a.u.] -> [eV]                                             2.72113838565563E+01
 [a.u.] -> [Hz]                                             6.57968392072181E+15
 [a.u.] -> [1/cm] (wave numbers)                            2.19474631370540E+05
 [a.u./Bohr**2] -> [1/cm]                                   5.14048714338585E+03
 

 CELL_TOP| Volume [angstrom^3]:                                     27000.000000
 CELL_TOP| Vector a [angstrom    30.000     0.000     0.000   |a| =    30.000000
 CELL_TOP| Vector b [angstrom     0.000    30.000     0.000   |b| =    30.000000
 CELL_TOP| Vector c [angstrom     0.000     0.000    30.000   |c| =    30.000000
 CELL_TOP| Angle (b,c), alpha [degree]:                                90.000000
 CELL_TOP| Angle (a,c), beta  [degree]:                                90.000000
 CELL_TOP| Angle (a,b), gamma [degree]:                                90.000000
 CELL_TOP| Numerically orthorhombic:                                         YES
 CELL_TOP| Periodicity                                                      NONE

 GENERATE|  Preliminary Number of Bonds generated:                             0
 GENERATE|  Achieved consistency in connectivity generation.

 CELL| Volume [angstrom^3]:                                         27000.000000
 CELL| Vector a [angstrom]:      30.000     0.000     0.000   |a| =    30.000000
 CELL| Vector b [angstrom]:       0.000    30.000     0.000   |b| =    30.000000
 CELL| Vector c [angstrom]:       0.000     0.000    30.000   |c| =    30.000000
 CELL| Angle (b,c), alpha [degree]:                                    90.000000
 CELL| Angle (a,c), beta  [degree]:                                    90.000000
 CELL| Angle (a,b), gamma [degree]:                                    90.000000
 CELL| Numerically orthorhombic:                                             YES
 CELL| Periodicity                                                          NONE

 CELL_REF| Volume [angstrom^3]:                                     27000.000000
 CELL_REF| Vector a [angstrom    30.000     0.000     0.000   |a| =    30.000000
 CELL_REF| Vector b [angstrom     0.000    30.000     0.000   |b| =    30.000000
 CELL_REF| Vector c [angstrom     0.000     0.000    30.000   |c| =    30.000000
 CELL_REF| Angle (b,c), alpha [degree]:                                90.000000
 CELL_REF| Angle (a,c), beta  [degree]:                                90.000000
 CELL_REF| Angle (a,b), gamma [degree]:                                90.000000
 CELL_REF| Numerically orthorhombic:                                         YES
 CELL_REF| Periodicity                                                      NONE

 *******************************************************************************
 *******************************************************************************
 **                                                                           **
 **     #####                         ##              ##                      **
 **    ##   ##            ##          ##              ##                      **
 **   ##     ##                       ##            ######                    **
 **   ##     ##  ##   ##  ##   #####  ##  ##   ####   ##    #####    #####    **
 **   ##     ##  ##   ##  ##  ##      ## ##   ##      ##   ##   ##  ##   ##   **
 **   ##  ## ##  ##   ##  ##  ##      ####     ###    ##   ######   ######    **
 **    ##  ###   ##   ##  ##  ##      ## ##      ##   ##   ##       ##        **
 **     #######   #####   ##   #####  ##  ##  ####    ##    #####   ##        **
 **           ##                                                    ##        **
 **                                                                           **
 **                                                ... make the atoms dance   **
 **                                                                           **
 **            Copyright (C) by CP2K developers group (2000-2025)             **
 **                      J. Chem. Phys. 152, 194103 (2020)                    **
 **                                                                           **
 *******************************************************************************

 DFT| Spin restricted Kohn-Sham (RKS) calculation                            RKS
 DFT| Multiplicity                                                             1
 DFT| Number of spin states                                                    1
 DFT| Charge                                                                   0
 DFT| Self-interaction correction (SIC)                                       NO
 DFT| Cutoffs: density                                              1.000000E-10
 DFT|          gradient                                             1.000000E-10
 DFT|          tau                                                  1.000000E-10
 DFT|          cutoff_smoothing_range                               0.000000E+00
 DFT| XC density smoothing                                                  NONE
 DFT| XC derivatives                                                          PW

 FUNCTIONAL| PBE:
 FUNCTIONAL| J.P.Perdew, K.Burke, M.Ernzerhof, Phys. Rev. Letter, vol. 77, n 18,
 FUNCTIONAL|  pp. 3865-3868, (1996)sx=0.750sc=1.000{spin unpolarized}           


 QS| Method:                                                                GAPW
 QS| Density plane wave grid type                        NON-SPHERICAL FULLSPACE
 QS| Number of grid levels:                                                    4
 QS| Density cutoff [a.u.]:                                                250.0
 QS| Multi grid cutoff [a.u.]: 1) grid level                               250.0
 QS|                           2) grid level                                83.3
 QS|                           3) grid level                                27.8
 QS|                           4) grid level                                 9.3
 QS| Grid level progression factor:                                          3.0
 QS| Relative density cutoff [a.u.]:                                        50.0
 QS| Interaction thresholds: eps_pgf_orb:                                1.0E-12
 QS|                         eps_filter_matrix:                          0.0E+00
 QS|                         eps_core_charge:                            1.0E-14
 QS|                         eps_rho_gspace:                             1.0E-12
 QS|                         eps_rho_rspace:                             1.0E-12
 QS|                         eps_gvg_rspace:                             1.0E-06
 QS|                         eps_ppl:                                    1.0E-02
 QS|                         eps_ppnl:                                   1.0E-08
 QS| GAPW|      One center basis from orbital basis primitives
 QS| GAPW|                   eps_fit:                                    1.0E-04
 QS| GAPW|                   eps_iso:                                    1.0E-12
 QS| GAPW|                   eps_svd:                                    1.0E-08
 QS| GAPW|                   eps_cpc:                                    1.0E-12
 QS| GAPW|   atom-r-grid: quadrature:                                     GC_LOG
 QS| GAPW|      atom-s-grid:  max l :                                          8
 QS| GAPW|      max_l_rho0 :                                                   2


 ATOMIC KIND INFORMATION

  1. Atomic kind: H                                     Number of atoms:       1

     Orbital Basis Set                                                   cc-pVQZ

       Number of orbital shell sets:                                           4
       Number of orbital shells:                                              10
       Number of primitive Cartesian functions:                               12
       Number of Cartesian basis functions:                                   35
       Number of spherical basis functions:                                   30
       Norm type:                                                              2

       Normalised Cartesian orbitals:

                        Set   Shell   Orbital            Exponent    Coefficient

                          1       1    1s               82.640000       0.000000
                                                        12.410000       0.000000
                                                         2.824000       0.000000
                                                         0.797700       0.601575
                                                         0.258100       0.000000
                                                         0.089890       0.000000

                          1       2    2s               82.640000       0.000000
                                                        12.410000       0.000000
                                                         2.824000       0.000000
                                                         0.797700       0.000000
                                                         0.258100       0.258078
                                                         0.089890       0.000000

                          1       3    3s               82.640000       0.039186
                                                        12.410000       0.072302
                                                         2.824000       0.117344
                                                         0.797700       0.154530
                                                         0.258100       0.128360
                                                         0.089890       0.034648

                          1       4    4s               82.640000       0.000000
                                                        12.410000       0.000000
                                                         2.824000       0.000000
                                                         0.797700       0.000000
                                                         0.258100       0.000000
                                                         0.089890       0.117002

                          2       1    1px               2.292000       4.019836
                                                         0.838000       0.000000
                                                         0.292000       0.000000
                          2       1    1py               2.292000       4.019836
                                                         0.838000       0.000000
                                                         0.292000       0.000000
                          2       1    1pz               2.292000       4.019836
                                                         0.838000       0.000000
                                                         0.292000       0.000000

                          2       2    2px               2.292000       0.000000
                                                         0.838000       1.142865
                                                         0.292000       0.000000
                          2       2    2py               2.292000       0.000000
                                                         0.838000       1.142865
                                                         0.292000       0.000000
                          2       2    2pz               2.292000       0.000000
                                                         0.838000       1.142865
                                                         0.292000       0.000000

                          2       3    3px               2.292000       0.000000
                                                         0.838000       0.000000
                                                         0.292000       0.305963
                          2       3    3py               2.292000       0.000000
                                                         0.838000       0.000000
                                                         0.292000       0.305963
                          2       3    3pz               2.292000       0.000000
                                                         0.838000       0.000000
                                                         0.292000       0.305963

                          3       1    1dx2              2.062000       5.840024
                                                         0.662000       0.000000
                          3       1    1dxy              2.062000      10.115218
                                                         0.662000       0.000000
                          3       1    1dxz              2.062000      10.115218
                                                         0.662000       0.000000
                          3       1    1dy2              2.062000       5.840024
                                                         0.662000       0.000000
                          3       1    1dyz              2.062000      10.115218
                                                         0.662000       0.000000
                          3       1    1dz2              2.062000       5.840024
                                                         0.662000       0.000000

                          3       2    2dx2              2.062000       0.000000
                                                         0.662000       0.799670
                          3       2    2dxy              2.062000       0.000000
                                                         0.662000       1.385069
                          3       2    2dxz              2.062000       0.000000
                                                         0.662000       1.385069
                          3       2    2dy2              2.062000       0.000000
                                                         0.662000       0.799670
                          3       2    2dyz              2.062000       0.000000
                                                         0.662000       1.385069
                          3       2    2dz2              2.062000       0.000000
                                                         0.662000       0.799670

                          4       1    1fx3              1.397000       3.123535
                          4       1    1fx2y             1.397000       6.984436
                          4       1    1fx2z             1.397000       6.984436
                          4       1    1fxy2             1.397000       6.984436
                          4       1    1fxyz             1.397000      12.097399
                          4       1    1fxz2             1.397000       6.984436
                          4       1    1fy3              1.397000       3.123535
                          4       1    1fy2z             1.397000       6.984436
                          4       1    1fyz2             1.397000       6.984436
                          4       1    1fz3              1.397000       3.123535

     RI Auxiliary Basis Set                                        cc-pVQZ-RIFIT

       Number of orbital shell sets:                                          15
       Number of orbital shells:                                              15
       Number of primitive Cartesian functions:                               15
       Number of Cartesian basis functions:                                   70
       Number of spherical basis functions:                                   55
       Norm type:                                                              2

       Normalised Cartesian orbitals:

                        Set   Shell   Orbital            Exponent    Coefficient

                          1       1    1px               0.224508       0.220283
                          1       1    1py               0.224508       0.220283
                          1       1    1pz               0.224508       0.220283

                          2       1    1s                0.227635       0.234877

                          3       1    1s                0.433111       0.380504

                          4       1    1px               0.516293       0.623822
                          4       1    1py               0.516293       0.623822
                          4       1    1pz               0.516293       0.623822

                          5       1    1dx2              0.527598       0.537577
                          5       1    1dxy              0.527598       0.931110
                          5       1    1dxz              0.527598       0.931110
                          5       1    1dy2              0.527598       0.537577
                          5       1    1dyz              0.527598       0.931110
                          5       1    1dz2              0.527598       0.537577

                          6       1    1fx3              0.671931       0.601776
                          6       1    1fx2y             0.671931       1.345612
                          6       1    1fx2z             0.671931       1.345612
                          6       1    1fxy2             0.671931       1.345612
                          6       1    1fxyz             0.671931       2.330669
                          6       1    1fxz2             0.671931       1.345612
                          6       1    1fy3              0.671931       0.601776
                          6       1    1fy2z             0.671931       1.345612
                          6       1    1fyz2             0.671931       1.345612
                          6       1    1fz3              0.671931       0.601776

                          7       1    1dx2              1.017710       1.697272
                          7       1    1dxy              1.017710       2.939762
                          7       1    1dxz              1.017710       2.939762
                          7       1    1dy2              1.017710       1.697272
                          7       1    1dyz              1.017710       2.939762
                          7       1    1dz2              1.017710       1.697272

                          8       1    1s                1.182483       0.808177

                          9       1    1px               1.228568       1.843695
                          9       1    1py               1.228568       1.843695
                          9       1    1pz               1.228568       1.843695

                         10       1    1fx3              1.896433       6.213178
                         10       1    1fx2y             1.896433      13.893089
                         10       1    1fx2z             1.896433      13.893089
                         10       1    1fxy2             1.896433      13.893089
                         10       1    1fxyz             1.896433      24.063536
                         10       1    1fxz2             1.896433      13.893089
                         10       1    1fy3              1.896433       6.213178
                         10       1    1fy2z             1.896433      13.893089
                         10       1    1fyz2             1.896433      13.893089
                         10       1    1fz3              1.896433       6.213178

                         11       1    1gx4              2.130883       8.911979
                         11       1    1gx3y             2.130883      23.578879
                         11       1    1gx3z             2.130883      23.578879
                         11       1    1gx2y2            2.130883      30.440202
                         11       1    1gx2yz            2.130883      52.723977
                         11       1    1gx2z2            2.130883      30.440202
                         11       1    1gxy3             2.130883      23.578879
                         11       1    1gxy2z            2.130883      52.723977
                         11       1    1gxyz2            2.130883      52.723977
                         11       1    1gxz3             2.130883      23.578879
                         11       1    1gy4              2.130883       8.911979
                         11       1    1gy3z             2.130883      23.578879
                         11       1    1gy2z2            2.130883      30.440202
                         11       1    1gyz3             2.130883      23.578879
                         11       1    1gz4              2.130883       8.911979

                         12       1    1dx2              2.778181       9.839891
                         12       1    1dxy              2.778181      17.043192
                         12       1    1dxz              2.778181      17.043192
                         12       1    1dy2              2.778181       9.839891
                         12       1    1dyz              2.778181      17.043192
                         12       1    1dz2              2.778181       9.839891

                         13       1    1px               3.228653       6.169030
                         13       1    1py               3.228653       6.169030
                         13       1    1pz               3.228653       6.169030

                         14       1    1s                4.308910       2.131502

                         15       1    1s               21.883534       7.211045

       Atomic covalent radius [Angstrom]:                                  0.320

       Atomic van der Waals radius [Angstrom]:                             1.090

     The atoms of this atomic kind are PAW atoms (GAPW):
       Hard Gaussian function radius:                                      1.200
       Rho0 radius:                                                        1.200
       Maximum GTO radius used for PAW projector construction:            24.566

     GAPW Soft Basis Set                                            cc-pVQZ_soft

       Number of orbital shell sets:                                           4
       Number of orbital shells:                                              10
       Number of primitive Cartesian functions:                               10
       Number of Cartesian basis functions:                                   35
       Number of spherical basis functions:                                   30
       Norm type:                                                              2

       Normalised Cartesian orbitals:

                        Set   Shell   Orbital            Exponent    Coefficient

                          1       1    1s                2.824000       0.000000
                                                         0.797700       0.601575
                                                         0.258100       0.000000
                                                         0.089890       0.000000

                          1       2    2s                2.824000       0.000000
                                                         0.797700       0.000000
                                                         0.258100       0.258078
                                                         0.089890       0.000000

                          1       3    3s                2.824000       0.117344
                                                         0.797700       0.154530
                                                         0.258100       0.128360
                                                         0.089890       0.034648

                          1       4    4s                2.824000       0.000000
                                                         0.797700       0.000000
                                                         0.258100       0.000000
                                                         0.089890       0.117002

                          2       1    1px               2.292000       4.019836
                                                         0.838000       0.000000
                                                         0.292000       0.000000
                          2       1    1py               2.292000       4.019836
                                                         0.838000       0.000000
                                                         0.292000       0.000000
                          2       1    1pz               2.292000       4.019836
                                                         0.838000       0.000000
                                                         0.292000       0.000000

                          2       2    2px               2.292000       0.000000
                                                         0.838000       1.142865
                                                         0.292000       0.000000
                          2       2    2py               2.292000       0.000000
                                                         0.838000       1.142865
                                                         0.292000       0.000000
                          2       2    2pz               2.292000       0.000000
                                                         0.838000       1.142865
                                                         0.292000       0.000000

                          2       3    3px               2.292000       0.000000
                                                         0.838000       0.000000
                                                         0.292000       0.305963
                          2       3    3py               2.292000       0.000000
                                                         0.838000       0.000000
                                                         0.292000       0.305963
                          2       3    3pz               2.292000       0.000000
                                                         0.838000       0.000000
                                                         0.292000       0.305963

                          3       1    1dx2              2.062000       5.840024
                                                         0.662000       0.000000
                          3       1    1dxy              2.062000      10.115218
                                                         0.662000       0.000000
                          3       1    1dxz              2.062000      10.115218
                                                         0.662000       0.000000
                          3       1    1dy2              2.062000       5.840024
                                                         0.662000       0.000000
                          3       1    1dyz              2.062000      10.115218
                                                         0.662000       0.000000
                          3       1    1dz2              2.062000       5.840024
                                                         0.662000       0.000000

                          3       2    2dx2              2.062000       0.000000
                                                         0.662000       0.799670
                          3       2    2dxy              2.062000       0.000000
                                                         0.662000       1.385069
                          3       2    2dxz              2.062000       0.000000
                                                         0.662000       1.385069
                          3       2    2dy2              2.062000       0.000000
                                                         0.662000       0.799670
                          3       2    2dyz              2.062000       0.000000
                                                         0.662000       1.385069
                          3       2    2dz2              2.062000       0.000000
                                                         0.662000       0.799670

                          4       1    1fx3              1.397000       3.123535
                          4       1    1fx2y             1.397000       6.984436
                          4       1    1fx2z             1.397000       6.984436
                          4       1    1fxy2             1.397000       6.984436
                          4       1    1fxyz             1.397000      12.097399
                          4       1    1fxz2             1.397000       6.984436
                          4       1    1fy3              1.397000       3.123535
                          4       1    1fy2z             1.397000       6.984436
                          4       1    1fyz2             1.397000       6.984436
                          4       1    1fz3              1.397000       3.123535

     AE Potential information for                                            ALL

       Description:                                       All-electron potential
                                          Krack, Parrinello, PCCP 2, 2105 (2000)

       Gaussian exponent of the core charge distribution:              12.500000
       Electronic configuration (s p d ...):                           1   0   0

  2. Atomic kind: O                                     Number of atoms:       1

     Orbital Basis Set                                                   cc-pVQZ

       Number of orbital shell sets:                                           5
       Number of orbital shells:                                              15
       Number of primitive Cartesian functions:                               24
       Number of Cartesian basis functions:                                   70
       Number of spherical basis functions:                                   55
       Norm type:                                                              2

       Normalised Cartesian orbitals:

                        Set   Shell   Orbital            Exponent    Coefficient

                          1       1    1px              63.420000       0.000000
                                                        14.660000       0.000000
                                                         4.459000       0.000000
                                                         1.531000       2.427499
                                                         0.530200       0.000000
                                                         0.175000       0.000000
                          1       1    1py              63.420000       0.000000
                                                        14.660000       0.000000
                                                         4.459000       0.000000
                                                         1.531000       2.427499
                                                         0.530200       0.000000
                                                         0.175000       0.000000
                          1       1    1pz              63.420000       0.000000
                                                        14.660000       0.000000
                                                         4.459000       0.000000
                                                         1.531000       2.427499
                                                         0.530200       0.000000
                                                         0.175000       0.000000

                          1       2    2px              63.420000       1.541868
                                                        14.660000       1.709122
                                                         4.459000       1.488326
                                                         1.531000       0.865964
                                                         0.530200       0.289113
                                                         0.175000       0.039518
                          1       2    2py              63.420000       1.541868
                                                        14.660000       1.709122
                                                         4.459000       1.488326
                                                         1.531000       0.865964
                                                         0.530200       0.289113
                                                         0.175000       0.039518
                          1       2    2pz              63.420000       1.541868
                                                        14.660000       1.709122
                                                         4.459000       1.488326
                                                         1.531000       0.865964
                                                         0.530200       0.289113
                                                         0.175000       0.039518

                          1       3    3px              63.420000       0.000000
                                                        14.660000       0.000000
                                                         4.459000       0.000000
                                                         1.531000       0.000000
                                                         0.530200       0.644896
                                                         0.175000       0.000000
                          1       3    3py              63.420000       0.000000
                                                        14.660000       0.000000
                                                         4.459000       0.000000
                                                         1.531000       0.000000
                                                         0.530200       0.644896
                                                         0.175000       0.000000
                          1       3    3pz              63.420000       0.000000
                                                        14.660000       0.000000
                                                         4.459000       0.000000
                                                         1.531000       0.000000
                                                         0.530200       0.644896
                                                         0.175000       0.000000

                          1       4    4px              63.420000       0.000000
                                                        14.660000       0.000000
                                                         4.459000       0.000000
                                                         1.531000       0.000000
                                                         0.530200       0.000000
                                                         0.175000       0.161338
                          1       4    4py              63.420000       0.000000
                                                        14.660000       0.000000
                                                         4.459000       0.000000
                                                         1.531000       0.000000
                                                         0.530200       0.000000
                                                         0.175000       0.161338
                          1       4    4pz              63.420000       0.000000
                                                        14.660000       0.000000
                                                         4.459000       0.000000
                                                         1.531000       0.000000
                                                         0.530200       0.000000
                                                         0.175000       0.161338

                          2       1    1s            61420.000000       0.250256
                                                      9199.000000       0.467274
                                                      2091.000000       0.807479
                                                       590.900000       1.299881
                                                       192.300000       1.929375
                                                        69.320000       2.498458
                                                        26.970000       2.574768
                                                        11.100000       1.727188
                                                         4.682000       0.492214
                                                         1.428000       0.016380
                                                         0.554700      -0.001146
                                                         0.206700       0.000208

                          2       2    2s            61420.000000       0.000000
                                                      9199.000000       0.000000
                                                      2091.000000       0.000000
                                                       590.900000       0.000000
                                                       192.300000       0.000000
                                                        69.320000       0.000000
                                                        26.970000       0.000000
                                                        11.100000       0.000000
                                                         4.682000       0.000000
                                                         1.428000       0.931014
                                                         0.554700       0.000000
                                                         0.206700       0.000000

                          2       3    3s            61420.000000       0.000000
                                                      9199.000000       0.000000
                                                      2091.000000       0.000000
                                                       590.900000       0.000000
                                                       192.300000       0.000000
                                                        69.320000       0.000000
                                                        26.970000       0.000000
                                                        11.100000       0.000000
                                                         4.682000       0.000000
                                                         1.428000       0.000000
                                                         0.554700       0.458093
                                                         0.206700       0.000000

                          2       4    4s            61420.000000      -0.055613
                                                      9199.000000      -0.106442
                                                      2091.000000      -0.182696
                                                       590.900000      -0.299644
                                                       192.300000      -0.447389
                                                        69.320000      -0.620860
                                                        26.970000      -0.700015
                                                        11.100000      -0.659178
                                                         4.682000      -0.261625
                                                         1.428000       0.269044
                                                         0.554700       0.268501
                                                         0.206700       0.060656

                          2       5    5s            61420.000000       0.000000
                                                      9199.000000       0.000000
                                                      2091.000000       0.000000
                                                       590.900000       0.000000
                                                       192.300000       0.000000
                                                        69.320000       0.000000
                                                        26.970000       0.000000
                                                        11.100000       0.000000
                                                         4.682000       0.000000
                                                         1.428000       0.000000
                                                         0.554700       0.000000
                                                         0.206700       0.218482

                          3       1    1dx2              3.775000      16.827288
                                                         1.300000       0.000000
                                                         0.444000       0.000000
                          3       1    1dxy              3.775000      29.145718
                                                         1.300000       0.000000
                                                         0.444000       0.000000
                          3       1    1dxz              3.775000      29.145718
                                                         1.300000       0.000000
                                                         0.444000       0.000000
                          3       1    1dy2              3.775000      16.827288
                                                         1.300000       0.000000
                                                         0.444000       0.000000
                          3       1    1dyz              3.775000      29.145718
                                                         1.300000       0.000000
                                                         0.444000       0.000000
                          3       1    1dz2              3.775000      16.827288
                                                         1.300000       0.000000
                                                         0.444000       0.000000

                          3       2    2dx2              3.775000       0.000000
                                                         1.300000       2.605016
                                                         0.444000       0.000000
                          3       2    2dxy              3.775000       0.000000
                                                         1.300000       4.512019
                                                         0.444000       0.000000
                          3       2    2dxz              3.775000       0.000000
                                                         1.300000       4.512019
                                                         0.444000       0.000000
                          3       2    2dy2              3.775000       0.000000
                                                         1.300000       2.605016
                                                         0.444000       0.000000
                          3       2    2dyz              3.775000       0.000000
                                                         1.300000       4.512019
                                                         0.444000       0.000000
                          3       2    2dz2              3.775000       0.000000
                                                         1.300000       2.605016
                                                         0.444000       0.000000

                          3       3    3dx2              3.775000       0.000000
                                                         1.300000       0.000000
                                                         0.444000       0.397493
                          3       3    3dxy              3.775000       0.000000
                                                         1.300000       0.000000
                                                         0.444000       0.688478
                          3       3    3dxz              3.775000       0.000000
                                                         1.300000       0.000000
                                                         0.444000       0.688478
                          3       3    3dy2              3.775000       0.000000
                                                         1.300000       0.000000
                                                         0.444000       0.397493
                          3       3    3dyz              3.775000       0.000000
                                                         1.300000       0.000000
                                                         0.444000       0.688478
                          3       3    3dz2              3.775000       0.000000
                                                         1.300000       0.000000
                                                         0.444000       0.397493

                          4       1    1fx3              2.666000      13.370258
                                                         0.859000       0.000000
                          4       1    1fx2y             2.666000      29.896805
                                                         0.859000       0.000000
                          4       1    1fx2z             2.666000      29.896805
                                                         0.859000       0.000000
                          4       1    1fxy2             2.666000      29.896805
                                                         0.859000       0.000000
                          4       1    1fxyz             2.666000      51.782785
                                                         0.859000       0.000000
                          4       1    1fxz2             2.666000      29.896805
                                                         0.859000       0.000000
                          4       1    1fy3              2.666000      13.370258
                                                         0.859000       0.000000
                          4       1    1fy2z             2.666000      29.896805
                                                         0.859000       0.000000
                          4       1    1fyz2             2.666000      29.896805
                                                         0.859000       0.000000
                          4       1    1fz3              2.666000      13.370258
                                                         0.859000       0.000000

                          4       2    2fx3              2.666000       0.000000
                                                         0.859000       1.045777
                          4       2    2fx2y             2.666000       0.000000
                                                         0.859000       2.338428
                          4       2    2fx2z             2.666000       0.000000
                                                         0.859000       2.338428
                          4       2    2fxy2             2.666000       0.000000
                                                         0.859000       2.338428
                          4       2    2fxyz             2.666000       0.000000
                                                         0.859000       4.050277
                          4       2    2fxz2             2.666000       0.000000
                                                         0.859000       2.338428
                          4       2    2fy3              2.666000       0.000000
                                                         0.859000       1.045777
                          4       2    2fy2z             2.666000       0.000000
                                                         0.859000       2.338428
                          4       2    2fyz2             2.666000       0.000000
                                                         0.859000       2.338428
                          4       2    2fz3              2.666000       0.000000
                                                         0.859000       1.045777

                          5       1    1gx4              1.846000       6.005824
                          5       1    1gx3y             1.846000      15.889916
                          5       1    1gx3z             1.846000      15.889916
                          5       1    1gx2y2            1.846000      20.513794
                          5       1    1gx2yz            1.846000      35.530933
                          5       1    1gx2z2            1.846000      20.513794
                          5       1    1gxy3             1.846000      15.889916
                          5       1    1gxy2z            1.846000      35.530933
                          5       1    1gxyz2            1.846000      35.530933
                          5       1    1gxz3             1.846000      15.889916
                          5       1    1gy4              1.846000       6.005824
                          5       1    1gy3z             1.846000      15.889916
                          5       1    1gy2z2            1.846000      20.513794
                          5       1    1gyz3             1.846000      15.889916
                          5       1    1gz4              1.846000       6.005824

     RI Auxiliary Basis Set                                        cc-pVQZ-RIFIT

       Number of orbital shell sets:                                          30
       Number of orbital shells:                                              30
       Number of primitive Cartesian functions:                               30
       Number of Cartesian basis functions:                                  181
       Number of spherical basis functions:                                  132
       Norm type:                                                              2

       Normalised Cartesian orbitals:

                        Set   Shell   Orbital            Exponent    Coefficient

                          1       1    1s                0.318502       0.302165

                          2       1    1dx2              0.423091       0.365316
                          2       1    1dxy              0.423091       0.632745
                          2       1    1dxz              0.423091       0.632745
                          2       1    1dy2              0.423091       0.365316
                          2       1    1dyz              0.423091       0.632745
                          2       1    1dz2              0.423091       0.365316

                          3       1    1px               0.478052       0.566609
                          3       1    1py               0.478052       0.566609
                          3       1    1pz               0.478052       0.566609

                          4       1    1s                0.718532       0.556217

                          5       1    1fx3              0.738724       0.744798
                          5       1    1fx2y             0.738724       1.665420
                          5       1    1fx2z             0.738724       1.665420
                          5       1    1fxy2             0.738724       1.665420
                          5       1    1fxyz             0.738724       2.884592
                          5       1    1fxz2             0.738724       1.665420
                          5       1    1fy3              0.738724       0.744798
                          5       1    1fy2z             0.738724       1.665420
                          5       1    1fyz2             0.738724       1.665420
                          5       1    1fz3              0.738724       0.744798

                          6       1    1px               0.867990       1.194217
                          6       1    1py               0.867990       1.194217
                          6       1    1pz               0.867990       1.194217

                          7       1    1dx2              0.989462       1.615690
                          7       1    1dxy              0.989462       2.798457
                          7       1    1dxz              0.989462       2.798457
                          7       1    1dy2              0.989462       1.615690
                          7       1    1dyz              0.989462       2.798457
                          7       1    1dz2              0.989462       1.615690

                          8       1    1gx4              1.259508       2.098884
                          8       1    1gx3y             1.259508       5.553125
                          8       1    1gx3z             1.259508       5.553125
                          8       1    1gx2y2            1.259508       7.169054
                          8       1    1gx2yz            1.259508      12.417166
                          8       1    1gx2z2            1.259508       7.169054
                          8       1    1gxy3             1.259508       5.553125
                          8       1    1gxy2z            1.259508      12.417166
                          8       1    1gxyz2            1.259508      12.417166
                          8       1    1gxz3             1.259508       5.553125
                          8       1    1gy4              1.259508       2.098884
                          8       1    1gy3z             1.259508       5.553125
                          8       1    1gy2z2            1.259508       7.169054
                          8       1    1gyz3             1.259508       5.553125
                          8       1    1gz4              1.259508       2.098884

                          9       1    1fx3              1.320839       2.753384
                          9       1    1fx2y             1.320839       6.156753
                          9       1    1fx2z             1.320839       6.156753
                          9       1    1fxy2             1.320839       6.156753
                          9       1    1fxyz             1.320839      10.663809
                          9       1    1fxz2             1.320839       6.156753
                          9       1    1fy3              1.320839       2.753384
                          9       1    1fy2z             1.320839       6.156753
                          9       1    1fyz2             1.320839       6.156753
                          9       1    1fz3              1.320839       2.753384

                         10       1    1s                1.525331       0.978213

                         11       1    1px               1.853895       3.083518
                         11       1    1py               1.853895       3.083518
                         11       1    1pz               1.853895       3.083518

                         12       1    1dx2              2.140282       6.233525
                         12       1    1dxy              2.140282      10.796782
                         12       1    1dxz              2.140282      10.796782
                         12       1    1dy2              2.140282       6.233525
                         12       1    1dyz              2.140282      10.796782
                         12       1    1dz2              2.140282       6.233525

                         13       1    1gx4              2.540195      14.448403
                         13       1    1gx3y             2.540195      38.226880
                         13       1    1gx3z             2.540195      38.226880
                         13       1    1gx2y2            2.540195      49.350690
                         13       1    1gx2yz            2.540195      85.477902
                         13       1    1gx2z2            2.540195      49.350690
                         13       1    1gxy3             2.540195      38.226880
                         13       1    1gxy2z            2.540195      85.477902
                         13       1    1gxyz2            2.540195      85.477902
                         13       1    1gxz3             2.540195      38.226880
                         13       1    1gy4              2.540195      14.448403
                         13       1    1gy3z             2.540195      38.226880
                         13       1    1gy2z2            2.540195      49.350690
                         13       1    1gyz3             2.540195      38.226880
                         13       1    1gz4              2.540195      14.448403

                         14       1    1s                2.588088       1.454268

                         15       1    1hx5              2.765541      20.236213
                         15       1    1hx4y             2.765541      60.708639
                         15       1    1hx4z             2.765541      60.708639
                         15       1    1hx3y2            2.765541      92.733978
                         15       1    1hx3yz            2.765541     160.619961
                         15       1    1hx3z2            2.765541      92.733978
                         15       1    1hx2y3            2.765541      92.733978
                         15       1    1hx2y2z           2.765541     207.359478
                         15       1    1hx2yz2           2.765541     207.359478
                         15       1    1hx2z3            2.765541      92.733978
                         15       1    1hxy4             2.765541      60.708639
                         15       1    1hxy3z            2.765541     160.619961
                         15       1    1hxy2z2           2.765541     207.359478
                         15       1    1hxyz3            2.765541     160.619961
                         15       1    1hxz4             2.765541      60.708639
                         15       1    1hy5              2.765541      20.236213
                         15       1    1hy4z             2.765541      60.708639
                         15       1    1hy3z2            2.765541      92.733978
                         15       1    1hy2z3            2.765541      92.733978
                         15       1    1hyz4             2.765541      60.708639
                         15       1    1hz5              2.765541      20.236213

                         16       1    1fx3              2.958020      16.893007
                         16       1    1fx2y             2.958020      37.773911
                         16       1    1fx2z             2.958020      37.773911
                         16       1    1fxy2             2.958020      37.773911
                         16       1    1fxyz             2.958020      65.426334
                         16       1    1fxz2             2.958020      37.773911
                         16       1    1fy3              2.958020      16.893007
                         16       1    1fy2z             2.958020      37.773911
                         16       1    1fyz2             2.958020      37.773911
                         16       1    1fz3              2.958020      16.893007

                         17       1    1px               3.341962       6.440832
                         17       1    1py               3.341962       6.440832
                         17       1    1pz               3.341962       6.440832

                         18       1    1dx2              3.910668      17.899816
                         18       1    1dxy              3.910668      31.003391
                         18       1    1dxz              3.910668      31.003391
                         18       1    1dy2              3.910668      17.899816
                         18       1    1dyz              3.910668      31.003391
                         18       1    1dz2              3.910668      17.899816

                         19       1    1fx3              4.449559      42.331894
                         19       1    1fx2y             4.449559      94.656992
                         19       1    1fx2z             4.449559      94.656992
                         19       1    1fxy2             4.449559      94.656992
                         19       1    1fxyz             4.449559     163.950720
                         19       1    1fxz2             4.449559      94.656992
                         19       1    1fy3              4.449559      42.331894
                         19       1    1fy2z             4.449559      94.656992
                         19       1    1fyz2             4.449559      94.656992
                         19       1    1fz3              4.449559      42.331894

                         20       1    1gx4              4.947623      90.370367
                         20       1    1gx3y             4.947623     239.097518
                         20       1    1gx3z             4.947623     239.097518
                         20       1    1gx2y2            4.947623     308.673569
                         20       1    1gx2yz            4.947623     534.638304
                         20       1    1gx2z2            4.947623     308.673569
                         20       1    1gxy3             4.947623     239.097518
                         20       1    1gxy2z            4.947623     534.638304
                         20       1    1gxyz2            4.947623     534.638304
                         20       1    1gxz3             4.947623     239.097518
                         20       1    1gy4              4.947623      90.370367
                         20       1    1gy3z             4.947623     239.097518
                         20       1    1gy2z2            4.947623     308.673569
                         20       1    1gyz3             4.947623     239.097518
                         20       1    1gz4              4.947623      90.370367

                         21       1    1s                5.225256       2.463149

                         22       1    1px               6.566306      14.982750
                         22       1    1py               6.566306      14.982750
                         22       1    1pz               6.566306      14.982750

                         23       1    1dx2              8.636089      71.608466
                         23       1    1dxy              8.636089     124.029502
                         23       1    1dxz              8.636089     124.029502
                         23       1    1dy2              8.636089      71.608466
                         23       1    1dyz              8.636089     124.029502
                         23       1    1dz2              8.636089      71.608466

                         24       1    1fx3             10.502388     292.316002
                         24       1    1fx2y            10.502388     653.638452
                         24       1    1fx2z            10.502388     653.638452
                         24       1    1fxy2            10.502388     653.638452
                         24       1    1fxyz            10.502388    1132.135008
                         24       1    1fxz2            10.502388     653.638452
                         24       1    1fy3             10.502388     292.316002
                         24       1    1fy2z            10.502388     653.638452
                         24       1    1fyz2            10.502388     653.638452
                         24       1    1fz3             10.502388     292.316002

                         25       1    1s               21.117407       7.020864

                         26       1    1px              22.294395      69.053340
                         26       1    1py              22.294395      69.053340
                         26       1    1pz              22.294395      69.053340

                         27       1    1dx2             25.394489     472.828403
                         27       1    1dxy             25.394489     818.962817
                         27       1    1dxz             25.394489     818.962817
                         27       1    1dy2             25.394489     472.828403
                         27       1    1dyz             25.394489     818.962817
                         27       1    1dz2             25.394489     472.828403

                         28       1    1s               75.357262      18.228626

                         29       1    1px              88.557170     387.230674
                         29       1    1py              88.557170     387.230674
                         29       1    1pz              88.557170     387.230674

                         30       1    1s              353.830357      58.144201

       Atomic covalent radius [Angstrom]:                                  0.730

       Atomic van der Waals radius [Angstrom]:                             1.520

     The atoms of this atomic kind are PAW atoms (GAPW):
       Hard Gaussian function radius:                                      1.512
       Rho0 radius:                                                        1.512
       Maximum GTO radius used for PAW projector construction:            24.566

     GAPW Soft Basis Set                                            cc-pVQZ_soft

       Number of orbital shell sets:                                           5
       Number of orbital shells:                                              15
       Number of primitive Cartesian functions:                               12
       Number of Cartesian basis functions:                                   70
       Number of spherical basis functions:                                   55
       Norm type:                                                              2

       Normalised Cartesian orbitals:

                        Set   Shell   Orbital            Exponent    Coefficient

                          1       1    1px               1.531000       2.427499
                                                         0.530200       0.000000
                                                         0.175000       0.000000
                          1       1    1py               1.531000       2.427499
                                                         0.530200       0.000000
                                                         0.175000       0.000000
                          1       1    1pz               1.531000       2.427499
                                                         0.530200       0.000000
                                                         0.175000       0.000000

                          1       2    2px               1.531000       0.865964
                                                         0.530200       0.289113
                                                         0.175000       0.039518
                          1       2    2py               1.531000       0.865964
                                                         0.530200       0.289113
                                                         0.175000       0.039518
                          1       2    2pz               1.531000       0.865964
                                                         0.530200       0.289113
                                                         0.175000       0.039518

                          1       3    3px               1.531000       0.000000
                                                         0.530200       0.644896
                                                         0.175000       0.000000
                          1       3    3py               1.531000       0.000000
                                                         0.530200       0.644896
                                                         0.175000       0.000000
                          1       3    3pz               1.531000       0.000000
                                                         0.530200       0.644896
                                                         0.175000       0.000000

                          1       4    4px               1.531000       0.000000
                                                         0.530200       0.000000
                                                         0.175000       0.161338
                          1       4    4py               1.531000       0.000000
                                                         0.530200       0.000000
                                                         0.175000       0.161338
                          1       4    4pz               1.531000       0.000000
                                                         0.530200       0.000000
                                                         0.175000       0.161338

                          2       1    1s                1.428000       0.016380
                                                         0.554700      -0.001146
                                                         0.206700       0.000208

                          2       2    2s                1.428000       0.931014
                                                         0.554700       0.000000
                                                         0.206700       0.000000

                          2       3    3s                1.428000       0.000000
                                                         0.554700       0.458093
                                                         0.206700       0.000000

                          2       4    4s                1.428000       0.269044
                                                         0.554700       0.268501
                                                         0.206700       0.060656

                          2       5    5s                1.428000       0.000000
                                                         0.554700       0.000000
                                                         0.206700       0.218482

                          3       1    1dx2              3.775000      16.827288
                                                         1.300000       0.000000
                                                         0.444000       0.000000
                          3       1    1dxy              3.775000      29.145718
                                                         1.300000       0.000000
                                                         0.444000       0.000000
                          3       1    1dxz              3.775000      29.145718
                                                         1.300000       0.000000
                                                         0.444000       0.000000
                          3       1    1dy2              3.775000      16.827288
                                                         1.300000       0.000000
                                                         0.444000       0.000000
                          3       1    1dyz              3.775000      29.145718
                                                         1.300000       0.000000
                                                         0.444000       0.000000
                          3       1    1dz2              3.775000      16.827288
                                                         1.300000       0.000000
                                                         0.444000       0.000000

                          3       2    2dx2              3.775000       0.000000
                                                         1.300000       2.605016
                                                         0.444000       0.000000
                          3       2    2dxy              3.775000       0.000000
[...]
 xc_rho_set_and_dset_create          68 10.0    0.144    0.187    5.265    5.541
 gspace_mixing                       67  5.0    0.145    0.156    5.323    5.329
 calculate_rho_atom                 276  9.0    1.117    5.038    1.117    5.039
 calc_pair_dist_radii                 1 10.0    1.394    1.432    4.293    4.777
 mp_waitany                       17472 11.5    4.099    4.721    4.099    4.721
 grid_collocate_task_list            69  7.0    3.928    4.695    3.928    4.695
 parallel_gemm_fm                   356  8.5    0.001    0.001    4.448    4.494
 parallel_gemm_fm_gemm              356  9.5    0.001    0.001    4.448    4.493
 cp_fm_gemm                         356 10.5    4.447    4.493    4.447    4.493
 mp_sum_dv                        15790 11.6    4.022    4.130    4.022    4.130
 mp_alltoall_d11v                  1248  9.4    3.132    3.858    3.132    3.858
 broyden_mixing                      67  6.0    3.624    3.758    3.777    3.856
 transfer_rs2pw_250                 139 10.0    1.147    1.265    3.079    3.773
 put_rho0_on_grid                    69  9.0    0.154    0.174    3.187    3.248
 transfer_pw2rs_250                 139 10.9    0.947    1.162    2.925    3.217
 mp_waitall_1                     71962 12.0    2.325    3.049    2.325    3.049
 mp2_ri_gpw_compute_in                1  5.0    0.001    0.001    2.505    2.505
 create_qs_kind_set                   1  2.0    0.000    0.000    2.497    2.498
 read_qs_kind                         4  3.0    1.390    1.413    2.497    2.497
 mp2_ri_gpw_compute_in_loop           1  6.0    0.000    0.000    2.492    2.492
 contract_B_L                         4  7.0    0.002    0.003    2.381    2.462
 rs_gather_matrices                  69 10.0    0.006    0.010    2.375    2.457
 integrate_vhg0_rspace               69  8.0    0.104    0.126    2.348    2.439
 grid_integrate_task_list            69 10.0    0.049    2.399    0.049    2.399
 cp_fm_syevd                         74  7.0    0.001    0.001    2.357    2.362
 qs_scf_new_mos                      68  5.0    0.001    0.001    2.181    2.267
 cp_fm_redistribute_end              74  8.0    1.161    2.258    1.165    2.262
 cp_fm_syevd_base                    74  8.0    1.095    2.193    1.095    2.193
 dbt_total                            8  8.0    0.000    0.000    2.090    2.090
 mp_sum_l                           905  5.9    1.426    2.010    1.426    2.010
 integrate_four_center_load          69 10.0    0.000    0.001    1.399    1.992
 hfx_load_balance                     1 11.0    0.000    0.000    1.399    1.992
 hfx_load_balance_range               1 12.0    0.000    0.000    1.380    1.973
 eigensolver_symm                    69  6.0    0.002    0.002    1.731    1.735
 mp_alltoall_z11v                   276 13.5    1.156    1.653    1.156    1.653
 mp_alltoall_d45                     70 10.0    0.754    1.596    0.754    1.596
 dbt_contract                         4  9.0    0.001    0.001    1.152    1.592
 transfer_rs2pw_30                   69  9.0    0.650    0.682    1.500    1.548
 transfer_pw2rs_30                   69 12.0    0.631    0.697    1.422    1.527
 fft_wrap_pw1pw2_30                 138 10.5    0.004    0.004    0.779    1.389
 fft_wrap_pw1pw2_90                 138 10.5    0.023    0.032    0.621    1.327
 fft_wrap_pw1pw2_10                 138 10.5    0.001    0.002    1.059    1.268
 xz_to_yz                           138 11.0    0.008    0.012    0.846    1.226
 cp2k_distribution_to_z_slices       69  9.0    0.316    0.353    0.792    1.213
 xc_functional_eval                 612 11.0    0.001    0.002    0.913    1.193
 pbe_lda_eval                       612 12.0    0.913    1.190    0.913    1.190
 mp_sendrecv_dv                   29670 10.0    1.135    1.186    1.135    1.186
 mp_cart_create                     513 10.0    1.056    1.174    1.057    1.175
 dbt_pgrid_create_expert             84 10.8    0.000    0.000    1.030    1.147
 parser_read_line                294992  4.0    0.104    0.113    1.107    1.116
 transfer_rs2pw_90                   69  9.0    0.187    0.230    0.861    1.095
 mp_isendrecv_dv                  59340 12.0    0.545    1.087    0.545    1.087
 Vh_1c_gg_integrals                  69  8.0    0.011    0.562    0.609    1.081
 parser_read_line_low               316  5.0    0.096    0.432    1.002    1.015
 pw_scatter_p                       753 12.1    0.958    0.994    0.958    0.994
 integrate_four_center_getP          69 10.0    0.026    0.028    0.980    0.989
 pw_gather_p                        687 11.8    0.777    0.951    0.777    0.951
 rs_grid_zero                       347 11.2    0.918    0.947    0.918    0.947
 broadcast_input_information        316  6.0    0.237    0.263    0.906    0.923
 transfer_pw2rs_90                   69 12.0    0.183    0.215    0.788    0.894
 mp_sum_dm                          901  7.6    0.750    0.857    0.750    0.857
 cube_transpose_2                   138 11.0    0.003    0.003    0.404    0.847
 integrate_four_center_dist_KS       69 10.0    0.025    0.027    0.843    0.845
 start_bse_calculation                1  7.0    0.000    0.001    0.838    0.838
 dbt_remap                            8 10.0    0.002    0.002    0.831    0.834
 dbt_nd_mp_comm                       8 11.0    0.000    0.000    0.763    0.801
 pw_derive                          615 11.3    0.657    0.705    0.657    0.705
 mp_max_i                           587  2.9    0.190    0.628    0.190    0.628
 pw_integral_ab_c1d_c1d_gs           69  9.0    0.223    0.226    0.325    0.613
 compute_vec_Sigma_x_minus_vxc_       1  4.0    0.000    0.000    0.612    0.612
 pw_poisson_rebuild                  69  9.0    0.000    0.000    0.559    0.592
 ps_wavelet_create                    1 10.0    0.000    0.000    0.559    0.591
 RS_z_slice_distribution              1 11.0    0.500    0.536    0.559    0.591
 pw_copy                           1030 10.6    0.494    0.536    0.494    0.536
 qs_energies_init_hamiltonians        1  3.0    0.000    0.000    0.531    0.531
 dbt_copy                            12 10.2    0.000    0.001    0.120    0.525
 build_core_hamiltonian_matrix        1  4.0    0.000    0.000    0.518    0.518
 overlap_condnum                      1  5.0    0.000    0.000    0.515    0.516
 dbt_reshape                          8 11.8    0.010    0.014    0.105    0.508
 mp_waitall_2                        50 15.6    0.091    0.496    0.091    0.496
 dbt_communicate_buffer               8 12.8    0.002    0.002    0.089    0.491
 transfer_pw2rs_10                   69 12.0    0.165    0.200    0.455    0.488
 yz_to_xz                           138 14.0    0.013    0.015    0.332    0.466
 transfer_rs2pw_10                   69  9.0    0.167    0.178    0.452    0.462
 arnoldi_conjugate_gradient           5  6.0    0.011    0.013    0.458    0.459
 mp_bcast_i_src                    1264  7.0    0.327    0.451    0.327    0.451
 mp_irecv_dm3                      2496 11.5    0.162    0.449    0.162    0.449
 mp_sum_i                            21  9.7    0.257    0.432    0.257    0.432
 restraint_control                    1  2.0    0.000    0.000    0.256    0.431
 mp2_main_alloc_hfx                   1  4.0    0.175    0.430    0.175    0.430
 pw_poisson_set                      70  8.9    0.002    0.002    0.412    0.422
 diagonalize_C                        1  8.0    0.000    0.000    0.400    0.401
 mp_bcast_am_src                    316  7.0    0.310    0.364    0.335    0.392
 cp_fm_power                          2  7.5    0.004    0.006    0.390    0.391
 create_hermitian_form_of_ABBA        1  8.0    0.000    0.000    0.380    0.380
 rpa_num_int_RPA_matrix_operati     100  7.0    0.001    0.002    0.372    0.373
 mp_isend_dm3                      2496 11.5    0.153    0.368    0.153    0.368
 mp_rank_compare                   1440 12.9    0.341    0.348    0.341    0.348
 cube_transpose_1                   138 14.0    0.002    0.003    0.141    0.346
 pw_copy_to_array                   687 11.8    0.268    0.346    0.268    0.346
 mp2_eri_3c_integrate                 1  7.0    0.001    0.001    0.091    0.331
 calculate_dm_sparse                 68  6.0    0.000    0.001    0.314    0.331
 integrate_set_3c                   452  8.0    0.082    0.299    0.090    0.330
 cp_dbcsr_plus_fm_fm_t               68  7.0    0.001    0.001    0.313    0.329
 qs_init_subsys                       1  2.0    0.006    0.012    0.296    0.297
 init_scf_run                         1  3.0    0.000    0.000    0.296    0.297
 dbcsr_sym_matrix_vector_mult      1526  7.0    0.024    0.026    0.181    0.294
 dbt_tas_multiply                     8 11.5    0.000    0.000    0.269    0.269
 copy_dbcsr_to_fm                    91  6.4    0.002    0.002    0.180    0.267
 dbt_tas_total                        8 12.5    0.002    0.002    0.266    0.266
 scf_env_initial_rho_setup            1  4.0    0.000    0.000    0.265    0.265
 pw_axpy                            685  9.3    0.226    0.251    0.226    0.251
 qs_env_setup                         1  3.0    0.000    0.000    0.237    0.247
 pw_copy_from_array                 753 12.1    0.193    0.246    0.193    0.246
 qs_env_rebuild_pw_env                2  3.5    0.000    0.000    0.235    0.246
 pw_env_rebuild                       1  5.0    0.001    0.001    0.235    0.245
 dbcsr_multiply_generic              97  8.1    0.005    0.005    0.218    0.235
 calc_mat_Q                         100  8.0    0.000    0.000    0.211    0.215
 dbcsr_complete_redistribute        231  8.4    0.012    0.017    0.203    0.209
 contract_S_to_Q                    100  9.0    0.000    0.001    0.201    0.204
 mp_isend_dv                      21686 11.8    0.142    0.197    0.142    0.197
 calculate_rho_atom_coeff            69  6.0    0.011    0.036    0.185    0.188
 dbcsr_desymmetrize_deep             93  7.3    0.003    0.004    0.085    0.173
 vxc_of_r_new                       544  9.0    0.000    0.024    0.001    0.165
 update_ks_atom                      69  8.0    0.008    0.027    0.120    0.152
 pw_zero                            410 10.3    0.134    0.152    0.134    0.152
 mp_alltoall_i22                    324  9.1    0.061    0.151    0.061    0.151
 compute_Erpa_by_freq_int           100  8.0    0.001    0.001    0.148    0.149
 cp_fm_cholesky_decompose           102  9.0    0.146    0.148    0.146    0.148
 pw_grid_setup                        4  6.0    0.000    0.000    0.135    0.145
 pw_grid_setup_internal               4  7.0    0.003    0.004    0.135    0.145
 cp_fm_cholesky_invert              101  8.0    0.136    0.142    0.136    0.142
 dbt_tas_dbm                          8 13.5    0.000    0.000    0.140    0.140
 dbcsr_add_d                       2345  7.1    0.002    0.003    0.018    0.139
 dbcsr_add_anytype                 2345  8.1    0.002    0.018    0.015    0.137
 dbm_multiply                         8 15.5    0.105    0.135    0.105    0.135
 mp_bcast_dm                        552  9.0    0.112    0.127    0.112    0.127
 copy_fm_to_dbcsr                   140  8.1    0.001    0.001    0.114    0.118
 dbcsr_rep_row_to_rep_col_vec      1526  8.0    0.007    0.010    0.034    0.117
 rs_scatter_matrices                 69  7.0    0.001    0.002    0.029    0.113
 dbt_tas_mm_1N                        4 14.5    0.000    0.000    0.084    0.113
 multiply_cannon                     97  9.1    0.011    0.012    0.097    0.111
 dbcsr_col_vec_to_rep_row          1526  8.0    0.010    0.013    0.039    0.110
 dbt_tas_estimate_result_nze          4 12.0    0.001    0.002    0.109    0.109
 dbcsr_finalize                    3801 10.8    0.008    0.035    0.026    0.102
 cp_fm_redistribute_start            74  8.0    0.075    0.077    0.096    0.102
 cp_fm_to_fm_submat_general         112 10.1    0.089    0.100    0.089    0.100
 calculate_rho0_atom                276  9.0    0.092    0.096    0.092    0.096
 make_m2s                           194  9.1    0.005    0.005    0.087    0.094
 compute_max_radius                   1  6.0    0.092    0.094    0.092    0.094
 offload_free_buffer                 77  8.4    0.002    0.092    0.002    0.092
 multiply_cannon_loop                97 10.1    0.016    0.017    0.070    0.084
 mp_alltoall_i11v                   786  9.3    0.076    0.078    0.076    0.078
 scale_and_distribute               138 10.0    0.066    0.075    0.066    0.075
 pw_grid_sort                         4  8.0    0.043    0.045    0.067    0.072
 cp_fm_symm                          69  7.0    0.060    0.065    0.060    0.065
 pw_scale                           273  9.5    0.047    0.062    0.047    0.062
 mp_bcast_dv                       1600  9.0    0.016    0.061    0.016    0.061
 mp_bcast_iv                        373  7.1    0.025    0.058    0.025    0.058
 postprocess_bse                      1  9.0    0.000    0.000    0.054    0.055
 scf_post_calculation_gpw             1  3.0    0.000    0.000    0.054    0.054
 init_rho_atom                        1  3.0    0.001    0.001    0.045    0.054
 write_available_results              1  4.0    0.000    0.000    0.054    0.054
 write_mo_free_results                1  5.0    0.003    0.003    0.053    0.054
 mp_maxloc_dv                      1525  1.0    0.048    0.052    0.048    0.052
 make_images                        194 10.1    0.010    0.011    0.046    0.051
 dbcsr_merge_all                   3002 11.6    0.010    0.041    0.013    0.049
 create_harmonics_atom                4  4.0    0.040    0.048    0.040    0.048
 dbcsr_iterator_start             20219  8.9    0.025    0.037    0.029    0.045
 mixing_init                          1  5.0    0.040    0.044    0.044    0.044
 dbcsr_copy                        6737  7.6    0.023    0.027    0.039    0.044
 dbt_distribution_new_expert         76 10.1    0.001    0.002    0.041    0.042
 hybrid_alltoall_any                287 10.8    0.004    0.005    0.035    0.041
 mp_irecv_dv                      21493 11.8    0.022    0.038    0.022    0.038
 dbt_tas_replicate                    8 13.5    0.014    0.020    0.036    0.038
 dbt_tas_distribution_new           101 12.0    0.024    0.025    0.036    0.037
 dbcsr_create_new                  9072  9.1    0.026    0.028    0.032    0.035
 mp_comm_split_direct                48 14.5    0.023    0.034    0.023    0.035
 abc_contract                       452  9.0    0.009    0.031    0.009    0.031
 dbt_split_blocks_generic            20  8.8    0.005    0.007    0.030    0.030
 dbcsr_iterator_stop              20219  8.9    0.018    0.025    0.022    0.030
 dbcsr_sym_matrix_vector_mult_l    1526  8.0    0.006    0.026    0.011    0.030
 sort_shells                          4  9.0    0.024    0.029    0.024    0.029
 create_integ_mat                     4  6.0    0.001    0.001    0.027    0.027
 print_transition_amplitudes          1 10.0    0.000    0.000    0.027    0.027
 print_transition_amplitudes_co      50 11.0    0.000    0.001    0.027    0.027
 filter_eigvec_contrib               50 12.0    0.016    0.017    0.027    0.027
 dbcsr_crop_matrix                  340 10.0    0.002    0.003    0.024    0.026
 dbt_tas_mm_2                         4 14.5    0.000    0.000    0.026    0.026
 multiply_cannon_metrocomm3        2652 11.1    0.004    0.004    0.012    0.026
 array2fm                             4  7.0    0.000    0.000    0.020    0.025
 get_multipoles_mo                    1 10.0    0.000    0.000    0.025    0.025
 dbt_tas_reshape                     10 13.6    0.000    0.000    0.023    0.025
 mp2_main_free_hfx                    1  4.0    0.010    0.025    0.010    0.025
 self_consistency_check              68  5.0    0.000    0.000    0.020    0.025
 cp_sm_mix                           68  6.0    0.000    0.002    0.020    0.024
 mp_max_d                            70  6.9    0.020    0.024    0.020    0.024
 hirshfeld_integration                1  6.0    0.000    0.002    0.023    0.024
 create_B                             1  8.0    0.000    0.000    0.022    0.024
 calculate_hirshfeld_normalizat       1  6.0    0.000    0.002    0.023    0.023
 dbt_create_new                      40  9.5    0.001    0.001    0.020    0.023
 make_images_sizes                  194 11.1    0.000    0.000    0.021    0.023
 mp_cart_rank                     77316 10.0    0.020    0.023    0.020    0.023
 mp_alltoall_i44                    194 12.1    0.021    0.023    0.021    0.023
 convert_to_new_pgrid                24 13.5    0.008    0.011    0.019    0.022
 dbm_reserve_blocks                  73 14.3    0.018    0.022    0.018    0.022
 create_fast_row_vec_access        3052  8.0    0.012    0.014    0.019    0.021
 create_fast_col_vec_access        3052  8.0    0.012    0.014    0.019    0.021
 mp_sum_iv                          295  9.6    0.017    0.020    0.017    0.020
 dbcsr_copy_submatrix               340 11.0    0.003    0.003    0.018    0.020
 write_mo_set_to_restart             68  5.0    0.001    0.005    0.007    0.020
 hfx_create                           1  2.0    0.015    0.016    0.018    0.020
 create_A                             1  8.0    0.001    0.001    0.019    0.020
 mp_bcast_iv_src                    316  7.0    0.008    0.020    0.008    0.020
 mp_cart_sub                        188  8.4    0.019    0.019    0.019    0.019
 dbt_tas_create_split                44 13.2    0.000    0.000    0.018    0.019
 mp_bcast_av                        763  1.0    0.005    0.008    0.016    0.019
 dbt_tas_create_split_rows_or_c      44 14.2    0.000    0.000    0.018    0.019
 multiply_cannon_metrocomm1        2652 11.1    0.003    0.003    0.008    0.018
 write_mo_set_low                     4  6.0    0.000    0.000    0.006    0.018
 cp_fm_write_unformatted              4  7.0    0.005    0.015    0.006    0.018
 multiply_cannon_metrocomm4        2482 11.1    0.007    0.008    0.014    0.017
 dbcsr_work_create                 3488 10.7    0.003    0.011    0.005    0.017
 dbm_redistribute                    18 13.7    0.016    0.017    0.016    0.017
 mp_alltoall_i                       41 13.9    0.013    0.017    0.013    0.017
 xc_pw_smooth                        68 10.0    0.000    0.000    0.014    0.017
 pw_grid_remap                        4  8.0    0.003    0.003    0.015    0.016
 multiply_cannon_metrocomm2        2409 11.1    0.007    0.008    0.013    0.016
 pw_grid_assign                       4  8.0    0.014    0.015    0.015    0.016
 Q_trace_and_add_unit_matrix        100  8.0    0.001    0.001    0.012    0.016
 dbcsr_work_destroy_all            3488 11.6    0.003    0.012    0.004    0.015
 cp_fm_uplo_to_full                 104  8.0    0.006    0.015    0.006    0.015
 multiply_cannon_multrec           2652 11.1    0.006    0.015    0.006    0.015
 dbt_tas_reserve_blocks_index        65 13.2    0.000    0.001    0.012    0.015
 dbt_tas_communicate_buffer          18 15.6    0.001    0.002    0.011    0.015
 cp_dbcsr_sm_fm_multiply              3 11.0    0.000    0.000    0.014    0.015
 array2fm_info                        4  8.0    0.010    0.014    0.010    0.014
 -------------------------------------------------------------------------------

 The number of warnings for this run is : 1
 
 -------------------------------------------------------------------------------
  **** **** ******  **  PROGRAM ENDED AT                 2025-04-11 18:00:07.584
 ***** ** ***  *** **   PROGRAM RAN ON                              i06r11c01s08
 **    ****   ******    PROGRAM RAN BY                                   di38fab
 ***** **    ** ** **   PROGRAM PROCESS ID                               3180066
  **** **  *******  **  PROGRAM STOPPED IN /hppfs/scratch/04/di38fab/07_MOL_non_
                                           aug/05_MOL_non_aug/05_MOL/W4-11+ALK/h
                                           onc/cc-pVQZ/GW+BSE
