 DBCSR| CPU Multiplication driver                                           BLAS (U)
 DBCSR| Multrec recursion limit                                              512 (U)
 DBCSR| Multiplication stack size                                           1000 (D)
 DBCSR| Maximum elements for images                                    UNLIMITED (U)
 DBCSR| Multiplicative factor virtual images                                   1 (U)
 DBCSR| Use multiplication densification                                       T (D)
 DBCSR| Multiplication size stacks                                             3 (U)
 DBCSR| Use memory pool for CPU allocation                                     F (U)
 DBCSR| Number of 3D layers                                               SINGLE (U)
 DBCSR| Use MPI memory allocation                                              F (U)
 DBCSR| Use RMA algorithm                                                      F (U)
 DBCSR| Use Communication thread                                               T (U)
 DBCSR| Communication thread load                                             60 (D)
 DBCSR| MPI: My process id                                                     0
 DBCSR| MPI: Number of processes                                             192
 DBCSR| OMP: Current number of threads                                         8
 DBCSR| OMP: Max number of threads                                             8
 DBCSR| Split modifier for TAS multiplication algorithm                  1.0E+00 (U)


  **** **** ******  **  PROGRAM STARTED AT               2025-03-21 16:18:00.315
 ***** ** ***  *** **   PROGRAM STARTED ON                          i08r07c01s05
 **    ****   ******    PROGRAM STARTED BY                               di38fab
 ***** **    ** ** **   PROGRAM PROCESS ID                               2136821
  **** **  *******  **  PROGRAM STARTED IN /hppfs/scratch/04/di38fab/05_MOL/aUKB
                                           qsEOTmq69kFe5R_nOg/5k_set_final_qzvp/
                                           VUPTAC01/aug-cc-pV5Z/GW+BSE

 CP2K| version string:                 CP2K version 2025.1 (Development Version)
 CP2K| source code revision number:                                  git:d2e611a
 CP2K| cp2kflags: omp libint fftw3 libxc parallel scalapack max_contr=4         
 CP2K| is freely available from                            https://www.cp2k.org/
 CP2K| Program compiled at                       Thu 06 Mar 2025 05:09:20 PM CET
 CP2K| Program compiled on                                               login02
 CP2K| Program compiled for                                        Supermuc-foss
 CP2K| Data directory path                  /hppfs/work/pn36zo/di38fab/cp2k/data
 CP2K| Input file name                                                    GW.inp

 GLOBAL| Force Environment number                                              1
 GLOBAL| Basis set file name            /hppfs/scratch/04/di38fab/04_TMD/BASIS_A
 GLOBAL| Potential file name            /hppfs/work/pn36zo/di38fab/cp2k/data/ALL
 GLOBAL| MM Potential file name                                     MM_POTENTIAL
 GLOBAL| Coordinate file name                                      __STD_INPUT__
 GLOBAL| Method name                                                        CP2K
 GLOBAL| Project name                                                       MoS2
 GLOBAL| Run type                                                         ENERGY
 GLOBAL| FFT library                                                       FFTW3
 GLOBAL| Diagonalization library                                       ScaLAPACK
 GLOBAL| DGEMM library                                                      BLAS
 GLOBAL| Orthonormality check for eigenvectors                          DISABLED
 GLOBAL| Matrix multiplication library                                 ScaLAPACK
 GLOBAL| All-to-all communication in single precision                          F
 GLOBAL| FFTs using library dependent lengths                                  F
 GLOBAL| Grid backend                                                       AUTO
 GLOBAL| Global print level                                               MEDIUM
 GLOBAL| MPI I/O enabled                                                       T
 GLOBAL| Total number of message passing processes                           192
 GLOBAL| Number of threads for this process                                    8
 GLOBAL| This output is from process                                           0
 GLOBAL| OpenMP stack size per thread (OMP_STACKSIZE)                    default
 GLOBAL| CPU model name             Intel(R) Xeon(R) Platinum 8174 CPU @ 3.10GHz

 MEMORY| system memory details [Kb]
 MEMORY|                        rank 0           min           max       average
 MEMORY| MemTotal             98436660      98436660      98436736      98436669
 MEMORY| MemFree              84594132      84314156      85032072      84739319
 MEMORY| Buffers                     0             0             0             0
 MEMORY| Cached                2380084       2354948       2396064       2376491
 MEMORY| Slab                  1224136       1172108       1246040       1217325
 MEMORY| SReclaimable           273512        259876        279096        270261
 MEMORY| MemLikelyFree        87247728      86938128      87683792      87386072


 *** Fundamental physical constants (SI units) ***

 *** Literature: B. J. Mohr and B. N. Taylor,
 ***             CODATA recommended values of the fundamental physical
 ***             constants: 2006, Web Version 5.1
 ***             http://physics.nist.gov/constants

 Speed of light in vacuum [m/s]                             2.99792458000000E+08
 Magnetic constant or permeability of vacuum [N/A**2]       1.25663706143592E-06
 Electric constant or permittivity of vacuum [F/m]          8.85418781762039E-12
 Planck constant (h) [J*s]                                  6.62606896000000E-34
 Planck constant (h-bar) [J*s]                              1.05457162825177E-34
 Elementary charge [C]                                      1.60217648700000E-19
 Electron mass [kg]                                         9.10938215000000E-31
 Electron g factor [ ]                                     -2.00231930436220E+00
 Proton mass [kg]                                           1.67262163700000E-27
 Fine-structure constant                                    7.29735253760000E-03
 Rydberg constant [1/m]                                     1.09737315685270E+07
 Avogadro constant [1/mol]                                  6.02214179000000E+23
 Boltzmann constant [J/K]                                   1.38065040000000E-23
 Atomic mass unit [kg]                                      1.66053878200000E-27
 Bohr radius [m]                                            5.29177208590000E-11

 *** Conversion factors ***

 [u] -> [a.u.]                                              1.82288848426455E+03
 [Angstrom] -> [Bohr] = [a.u.]                              1.88972613288564E+00
 [a.u.] = [Bohr] -> [Angstrom]                              5.29177208590000E-01
 [a.u.] -> [s]                                              2.41888432650478E-17
 [a.u.] -> [fs]                                             2.41888432650478E-02
 [a.u.] -> [J]                                              4.35974393937059E-18
 [a.u.] -> [N]                                              8.23872205491840E-08
 [a.u.] -> [K]                                              3.15774647902944E+05
 [a.u.] -> [kJ/mol]                                         2.62549961709828E+03
 [a.u.] -> [kcal/mol]                                       6.27509468713739E+02
 [a.u.] -> [Pa]                                             2.94210107994716E+13
 [a.u.] -> [bar]                                            2.94210107994716E+08
 [a.u.] -> [atm]                                            2.90362800883016E+08
 [a.u.] -> [eV]                                             2.72113838565563E+01
 [a.u.] -> [Hz]                                             6.57968392072181E+15
 [a.u.] -> [1/cm] (wave numbers)                            2.19474631370540E+05
 [a.u./Bohr**2] -> [1/cm]                                   5.14048714338585E+03
 

 CELL_TOP| Volume [angstrom^3]:                                     27000.000000
 CELL_TOP| Vector a [angstrom    30.000     0.000     0.000   |a| =    30.000000
 CELL_TOP| Vector b [angstrom     0.000    30.000     0.000   |b| =    30.000000
 CELL_TOP| Vector c [angstrom     0.000     0.000    30.000   |c| =    30.000000
 CELL_TOP| Angle (b,c), alpha [degree]:                                90.000000
 CELL_TOP| Angle (a,c), beta  [degree]:                                90.000000
 CELL_TOP| Angle (a,b), gamma [degree]:                                90.000000
 CELL_TOP| Numerically orthorhombic:                                         YES
 CELL_TOP| Periodicity                                                      NONE

 GENERATE|  Preliminary Number of Bonds generated:                             0
 GENERATE|  Achieved consistency in connectivity generation.

 CELL| Volume [angstrom^3]:                                         27000.000000
 CELL| Vector a [angstrom]:      30.000     0.000     0.000   |a| =    30.000000
 CELL| Vector b [angstrom]:       0.000    30.000     0.000   |b| =    30.000000
 CELL| Vector c [angstrom]:       0.000     0.000    30.000   |c| =    30.000000
 CELL| Angle (b,c), alpha [degree]:                                    90.000000
 CELL| Angle (a,c), beta  [degree]:                                    90.000000
 CELL| Angle (a,b), gamma [degree]:                                    90.000000
 CELL| Numerically orthorhombic:                                             YES
 CELL| Periodicity                                                          NONE

 CELL_REF| Volume [angstrom^3]:                                     27000.000000
 CELL_REF| Vector a [angstrom    30.000     0.000     0.000   |a| =    30.000000
 CELL_REF| Vector b [angstrom     0.000    30.000     0.000   |b| =    30.000000
 CELL_REF| Vector c [angstrom     0.000     0.000    30.000   |c| =    30.000000
 CELL_REF| Angle (b,c), alpha [degree]:                                90.000000
 CELL_REF| Angle (a,c), beta  [degree]:                                90.000000
 CELL_REF| Angle (a,b), gamma [degree]:                                90.000000
 CELL_REF| Numerically orthorhombic:                                         YES
 CELL_REF| Periodicity                                                      NONE

 *******************************************************************************
 *******************************************************************************
 **                                                                           **
 **     #####                         ##              ##                      **
 **    ##   ##            ##          ##              ##                      **
 **   ##     ##                       ##            ######                    **
 **   ##     ##  ##   ##  ##   #####  ##  ##   ####   ##    #####    #####    **
 **   ##     ##  ##   ##  ##  ##      ## ##   ##      ##   ##   ##  ##   ##   **
 **   ##  ## ##  ##   ##  ##  ##      ####     ###    ##   ######   ######    **
 **    ##  ###   ##   ##  ##  ##      ## ##      ##   ##   ##       ##        **
 **     #######   #####   ##   #####  ##  ##  ####    ##    #####   ##        **
 **           ##                                                    ##        **
 **                                                                           **
 **                                                ... make the atoms dance   **
 **                                                                           **
 **            Copyright (C) by CP2K developers group (2000-2025)             **
 **                      J. Chem. Phys. 152, 194103 (2020)                    **
 **                                                                           **
 *******************************************************************************

 DFT| Spin restricted Kohn-Sham (RKS) calculation                            RKS
 DFT| Multiplicity                                                             1
 DFT| Number of spin states                                                    1
 DFT| Charge                                                                   0
 DFT| Self-interaction correction (SIC)                                       NO
 DFT| Cutoffs: density                                              1.000000E-10
 DFT|          gradient                                             1.000000E-10
 DFT|          tau                                                  1.000000E-10
 DFT|          cutoff_smoothing_range                               0.000000E+00
 DFT| XC density smoothing                                                  NONE
 DFT| XC derivatives                                                          PW

 FUNCTIONAL| PBE:
 FUNCTIONAL| J.P.Perdew, K.Burke, M.Ernzerhof, Phys. Rev. Letter, vol. 77, n 18,
 FUNCTIONAL|  pp. 3865-3868, (1996)sx=0.750sc=1.000{spin unpolarized}           


 QS| Method:                                                                GAPW
 QS| Density plane wave grid type                        NON-SPHERICAL FULLSPACE
 QS| Number of grid levels:                                                    4
 QS| Density cutoff [a.u.]:                                                250.0
 QS| Multi grid cutoff [a.u.]: 1) grid level                               250.0
 QS|                           2) grid level                                83.3
 QS|                           3) grid level                                27.8
 QS|                           4) grid level                                 9.3
 QS| Grid level progression factor:                                          3.0
 QS| Relative density cutoff [a.u.]:                                        50.0
 QS| Interaction thresholds: eps_pgf_orb:                                1.0E-12
 QS|                         eps_filter_matrix:                          0.0E+00
 QS|                         eps_core_charge:                            1.0E-14
 QS|                         eps_rho_gspace:                             1.0E-12
 QS|                         eps_rho_rspace:                             1.0E-12
 QS|                         eps_gvg_rspace:                             1.0E-06
 QS|                         eps_ppl:                                    1.0E-02
 QS|                         eps_ppnl:                                   1.0E-08
 QS| GAPW|      One center basis from orbital basis primitives
 QS| GAPW|                   eps_fit:                                    1.0E-04
 QS| GAPW|                   eps_iso:                                    1.0E-12
 QS| GAPW|                   eps_svd:                                    1.0E-08
 QS| GAPW|                   eps_cpc:                                    1.0E-12
 QS| GAPW|   atom-r-grid: quadrature:                                     GC_LOG
 QS| GAPW|      atom-s-grid:  max l :                                         10
 QS| GAPW|      max_l_rho0 :                                                   2


 ATOMIC KIND INFORMATION

  1. Atomic kind: H                                     Number of atoms:       5

     Orbital Basis Set                                               aug-cc-pV5Z

       Number of orbital shell sets:                                          10
       Number of orbital shells:                                              20
       Number of primitive Cartesian functions:                               23
       Number of Cartesian basis functions:                                  105
       Number of spherical basis functions:                                   80
       Norm type:                                                              2

       Normalised Cartesian orbitals:

                        Set   Shell   Orbital            Exponent    Coefficient

                          1       1    1s                0.020700       0.038894

                          2       1    1s              402.000000       0.000000
                                                        60.240000       0.000000
                                                        13.730000       0.000000
                                                         3.905000       0.000000
                                                         1.283000       0.859172
                                                         0.465500       0.000000
                                                         0.181100       0.000000
                                                         0.072790       0.000000

                          2       2    2s              402.000000       0.000000
                                                        60.240000       0.000000
                                                        13.730000       0.000000
                                                         3.905000       0.000000
                                                         1.283000       0.000000
                                                         0.465500       0.401652
                                                         0.181100       0.000000
                                                         0.072790       0.000000

                          2       3    3s              402.000000       0.017852
                                                        60.240000       0.033364
                                                        13.730000       0.056940
                                                         3.905000       0.088850
                                                         1.283000       0.122259
                                                         0.465500       0.132938
                                                         0.181100       0.086318
                                                         0.072790       0.017622

                          2       4    4s              402.000000       0.000000
                                                        60.240000       0.000000
                                                        13.730000       0.000000
                                                         3.905000       0.000000
                                                         1.283000       0.000000
                                                         0.465500       0.000000
                                                         0.181100       0.197856
                                                         0.072790       0.000000

                          2       5    5s              402.000000       0.000000
                                                        60.240000       0.000000
                                                        13.730000       0.000000
                                                         3.905000       0.000000
                                                         1.283000       0.000000
                                                         0.465500       0.000000
                                                         0.181100       0.000000
                                                         0.072790       0.099877

                          3       1    1px               0.074400       0.055387
                          3       1    1py               0.074400       0.055387
                          3       1    1pz               0.074400       0.055387

                          4       1    1dx2              0.156000       0.063735
                          4       1    1dxy              0.156000       0.110392
                          4       1    1dxz              0.156000       0.110392
                          4       1    1dy2              0.156000       0.063735
                          4       1    1dyz              0.156000       0.110392
                          4       1    1dz2              0.156000       0.063735

                          5       1    1px               4.516000       9.383881
                                                         1.712000       0.000000
                                                         0.649000       0.000000
                                                         0.246000       0.000000
                          5       1    1py               4.516000       9.383881
                                                         1.712000       0.000000
                                                         0.649000       0.000000
                                                         0.246000       0.000000
                          5       1    1pz               4.516000       9.383881
                                                         1.712000       0.000000
                                                         0.649000       0.000000
                                                         0.246000       0.000000

                          5       2    2px               4.516000       0.000000
                                                         1.712000       2.791385
                                                         0.649000       0.000000
                                                         0.246000       0.000000
                          5       2    2py               4.516000       0.000000
                                                         1.712000       2.791385
                                                         0.649000       0.000000
                                                         0.246000       0.000000
                          5       2    2pz               4.516000       0.000000
                                                         1.712000       2.791385
                                                         0.649000       0.000000
                                                         0.246000       0.000000

                          5       3    3px               4.516000       0.000000
                                                         1.712000       0.000000
                                                         0.649000       0.830321
                                                         0.246000       0.000000
                          5       3    3py               4.516000       0.000000
                                                         1.712000       0.000000
                                                         0.649000       0.830321
                                                         0.246000       0.000000
                          5       3    3pz               4.516000       0.000000
                                                         1.712000       0.000000
                                                         0.649000       0.830321
                                                         0.246000       0.000000

                          5       4    4px               4.516000       0.000000
                                                         1.712000       0.000000
                                                         0.649000       0.000000
                                                         0.246000       0.246950
                          5       4    4py               4.516000       0.000000
                                                         1.712000       0.000000
                                                         0.649000       0.000000
                                                         0.246000       0.246950
                          5       4    4pz               4.516000       0.000000
                                                         1.712000       0.000000
                                                         0.649000       0.000000
                                                         0.246000       0.246950

                          6       1    1fx3              0.274000       0.079964
                          6       1    1fx2y             0.274000       0.178804
                          6       1    1fx2z             0.274000       0.178804
                          6       1    1fxy2             0.274000       0.178804
                          6       1    1fxyz             0.274000       0.309698
                          6       1    1fxz2             0.274000       0.178804
                          6       1    1fy3              0.274000       0.079964
                          6       1    1fy2z             0.274000       0.178804
                          6       1    1fyz2             0.274000       0.178804
                          6       1    1fz3              0.274000       0.079964

                          7       1    1dx2              2.950000      10.929442
                                                         1.206000       0.000000
                                                         0.493000       0.000000
                          7       1    1dxy              2.950000      18.930349
                                                         1.206000       0.000000
                                                         0.493000       0.000000
                          7       1    1dxz              2.950000      18.930349
                                                         1.206000       0.000000
                                                         0.493000       0.000000
                          7       1    1dy2              2.950000      10.929442
                                                         1.206000       0.000000
                                                         0.493000       0.000000
                          7       1    1dyz              2.950000      18.930349
                                                         1.206000       0.000000
                                                         0.493000       0.000000
                          7       1    1dz2              2.950000      10.929442
                                                         1.206000       0.000000
                                                         0.493000       0.000000

                          7       2    2dx2              2.950000       0.000000
                                                         1.206000       2.284374
                                                         0.493000       0.000000
                          7       2    2dxy              2.950000       0.000000
                                                         1.206000       3.956652
                                                         0.493000       0.000000
                          7       2    2dxz              2.950000       0.000000
                                                         1.206000       3.956652
                                                         0.493000       0.000000
                          7       2    2dy2              2.950000       0.000000
                                                         1.206000       2.284374
                                                         0.493000       0.000000
                          7       2    2dyz              2.950000       0.000000
                                                         1.206000       3.956652
                                                         0.493000       0.000000
                          7       2    2dz2              2.950000       0.000000
                                                         1.206000       2.284374
                                                         0.493000       0.000000

                          7       3    3dx2              2.950000       0.000000
                                                         1.206000       0.000000
                                                         0.493000       0.477410
                          7       3    3dxy              2.950000       0.000000
                                                         1.206000       0.000000
                                                         0.493000       0.826898
                          7       3    3dxz              2.950000       0.000000
                                                         1.206000       0.000000
                                                         0.493000       0.826898
                          7       3    3dy2              2.950000       0.000000
                                                         1.206000       0.000000
                                                         0.493000       0.477410
                          7       3    3dyz              2.950000       0.000000
                                                         1.206000       0.000000
                                                         0.493000       0.826898
                          7       3    3dz2              2.950000       0.000000
                                                         1.206000       0.000000
                                                         0.493000       0.477410

                          8       1    1gx4              0.543000       0.207556
                          8       1    1gx3y             0.543000       0.549141
                          8       1    1gx3z             0.543000       0.549141
                          8       1    1gx2y2            0.543000       0.708938
                          8       1    1gx2yz            0.543000       1.227917
                          8       1    1gx2z2            0.543000       0.708938
                          8       1    1gxy3             0.543000       0.549141
                          8       1    1gxy2z            0.543000       1.227917
                          8       1    1gxyz2            0.543000       1.227917
                          8       1    1gxz3             0.543000       0.549141
                          8       1    1gy4              0.543000       0.207556
                          8       1    1gy3z             0.543000       0.549141
                          8       1    1gy2z2            0.543000       0.708938
                          8       1    1gyz3             0.543000       0.549141
                          8       1    1gz4              0.543000       0.207556

                          9       1    1fx3              2.506000      11.632200
                                                         0.875000       0.000000
                          9       1    1fx2y             2.506000      26.010389
                                                         0.875000       0.000000
                          9       1    1fx2z             2.506000      26.010389
                                                         0.875000       0.000000
                          9       1    1fxy2             2.506000      26.010389
                                                         0.875000       0.000000
                          9       1    1fxyz             2.506000      45.051316
                                                         0.875000       0.000000
                          9       1    1fxz2             2.506000      26.010389
                                                         0.875000       0.000000
                          9       1    1fy3              2.506000      11.632200
                                                         0.875000       0.000000
                          9       1    1fy2z             2.506000      26.010389
                                                         0.875000       0.000000
                          9       1    1fyz2             2.506000      26.010389
                                                         0.875000       0.000000
                          9       1    1fz3              2.506000      11.632200
                                                         0.875000       0.000000

                          9       2    2fx3              2.506000       0.000000
                                                         0.875000       1.090116
                          9       2    2fx2y             2.506000       0.000000
                                                         0.875000       2.437573
                          9       2    2fx2z             2.506000       0.000000
                                                         0.875000       2.437573
                          9       2    2fxy2             2.506000       0.000000
                                                         0.875000       2.437573
                          9       2    2fxyz             2.506000       0.000000
                                                         0.875000       4.222000
                          9       2    2fxz2             2.506000       0.000000
                                                         0.875000       2.437573
                          9       2    2fy3              2.506000       0.000000
                                                         0.875000       1.090116
                          9       2    2fy2z             2.506000       0.000000
                                                         0.875000       2.437573
                          9       2    2fyz2             2.506000       0.000000
                                                         0.875000       2.437573
                          9       2    2fz3              2.506000       0.000000
                                                         0.875000       1.090116

                         10       1    1gx4              2.358000      11.774186
                         10       1    1gx3y             2.358000      31.151567
                         10       1    1gx3z             2.358000      31.151567
                         10       1    1gx2y2            2.358000      40.216500
                         10       1    1gx2yz            2.358000      69.657021
                         10       1    1gx2z2            2.358000      40.216500
                         10       1    1gxy3             2.358000      31.151567
                         10       1    1gxy2z            2.358000      69.657021
                         10       1    1gxyz2            2.358000      69.657021
                         10       1    1gxz3             2.358000      31.151567
                         10       1    1gy4              2.358000      11.774186
                         10       1    1gy3z             2.358000      31.151567
                         10       1    1gy2z2            2.358000      40.216500
                         10       1    1gyz3             2.358000      31.151567
                         10       1    1gz4              2.358000      11.774186

     RI Auxiliary Basis Set                                    aug-cc-pV5Z-OPTRI

       Number of orbital shell sets:                                          17
       Number of orbital shells:                                              17
       Number of primitive Cartesian functions:                               17
       Number of Cartesian basis functions:                                  115
       Number of spherical basis functions:                                   81
       Norm type:                                                              2

       Normalised Cartesian orbitals:

                        Set   Shell   Orbital            Exponent    Coefficient

                          1       1    1s                0.306678       0.293712

                          2       1    1fx3              0.582788       0.436871
                          2       1    1fx2y             0.582788       0.976873
                          2       1    1fx2z             0.582788       0.976873
                          2       1    1fxy2             0.582788       0.976873
                          2       1    1fxyz             0.582788       1.691994
                          2       1    1fxz2             0.582788       0.976873
                          2       1    1fy3              0.582788       0.436871
                          2       1    1fy2z             0.582788       0.976873
                          2       1    1fyz2             0.582788       0.976873
                          2       1    1fz3              0.582788       0.436871

                          3       1    1dx2              0.740674       0.973323
                          3       1    1dxy              0.740674       1.685844
                          3       1    1dxz              0.740674       1.685844
                          3       1    1dy2              0.740674       0.973323
                          3       1    1dyz              0.740674       1.685844
                          3       1    1dz2              0.740674       0.973323

                          4       1    1s                0.854346       0.633338

                          5       1    1px               0.977704       1.385796
                          5       1    1py               0.977704       1.385796
                          5       1    1pz               0.977704       1.385796

                          6       1    1gx4              1.260673       2.104225
                          6       1    1gx3y             1.260673       5.567256
                          6       1    1gx3z             1.260673       5.567256
                          6       1    1gx2y2            1.260673       7.187297
                          6       1    1gx2yz            1.260673      12.448763
                          6       1    1gx2z2            1.260673       7.187297
                          6       1    1gxy3             1.260673       5.567256
                          6       1    1gxy2z            1.260673      12.448763
                          6       1    1gxyz2            1.260673      12.448763
                          6       1    1gxz3             1.260673       5.567256
                          6       1    1gy4              1.260673       2.104225
                          6       1    1gy3z             1.260673       5.567256
                          6       1    1gy2z2            1.260673       7.187297
                          6       1    1gyz3             1.260673       5.567256
                          6       1    1gz4              1.260673       2.104225

                          7       1    1fx3              1.313322       2.718252
                          7       1    1fx2y             1.313322       6.078196
                          7       1    1fx2z             1.313322       6.078196
                          7       1    1fxy2             1.313322       6.078196
                          7       1    1fxyz             1.313322      10.527744
                          7       1    1fxz2             1.313322       6.078196
                          7       1    1fy3              1.313322       2.718252
                          7       1    1fy2z             1.313322       6.078196
                          7       1    1fyz2             1.313322       6.078196
                          7       1    1fz3              1.313322       2.718252

                          8       1    1dx2              1.868623       4.915553
                          8       1    1dxy              1.868623       8.513988
                          8       1    1dxz              1.868623       8.513988
                          8       1    1dy2              1.868623       4.915553
                          8       1    1dyz              1.868623       8.513988
                          8       1    1dz2              1.868623       4.915553

                          9       1    1s                2.242991       1.306263

                         10       1    1hx5              2.510965      14.785170
                         10       1    1hx4y             2.510965      44.355509
                         10       1    1hx4z             2.510965      44.355509
                         10       1    1hx3y2            2.510965      67.754159
                         10       1    1hx3yz            2.510965     117.353645
                         10       1    1hx3z2            2.510965      67.754159
                         10       1    1hx2y3            2.510965      67.754159
                         10       1    1hx2y2z           2.510965     151.502904
                         10       1    1hx2yz2           2.510965     151.502904
                         10       1    1hx2z3            2.510965      67.754159
                         10       1    1hxy4             2.510965      44.355509
                         10       1    1hxy3z            2.510965     117.353645
                         10       1    1hxy2z2           2.510965     151.502904
                         10       1    1hxyz3            2.510965     117.353645
                         10       1    1hxz4             2.510965      44.355509
                         10       1    1hy5              2.510965      14.785170
                         10       1    1hy4z             2.510965      44.355509
                         10       1    1hy3z2            2.510965      67.754159
                         10       1    1hy2z3            2.510965      67.754159
                         10       1    1hyz4             2.510965      44.355509
                         10       1    1hz5              2.510965      14.785170

                         11       1    1px               2.624145       4.760744
                         11       1    1py               2.624145       4.760744
                         11       1    1pz               2.624145       4.760744

                         12       1    1gx4              3.525409      35.584558
                         12       1    1gx3y             3.525409      94.147891
                         12       1    1gx3z             3.525409      94.147891
                         12       1    1gx2y2            3.525409     121.544404
                         12       1    1gx2yz            3.525409     210.521084
                         12       1    1gx2z2            3.525409     121.544404
                         12       1    1gxy3             3.525409      94.147891
                         12       1    1gxy2z            3.525409     210.521084
                         12       1    1gxyz2            3.525409     210.521084
                         12       1    1gxz3             3.525409      94.147891
                         12       1    1gy4              3.525409      35.584558
                         12       1    1gy3z             3.525409      94.147891
                         12       1    1gy2z2            3.525409     121.544404
                         12       1    1gyz3             3.525409      94.147891
                         12       1    1gz4              3.525409      35.584558

                         13       1    1fx3              3.758818      28.961421
                         13       1    1fx2y             3.758818      64.759707
                         13       1    1fx2z             3.758818      64.759707
                         13       1    1fxy2             3.758818      64.759707
                         13       1    1fxyz             3.758818     112.167102
                         13       1    1fxz2             3.758818      64.759707
                         13       1    1fy3              3.758818      28.961421
                         13       1    1fy2z             3.758818      64.759707
                         13       1    1fyz2             3.758818      64.759707
                         13       1    1fz3              3.758818      28.961421

                         14       1    1dx2              4.580832      23.608158
                         14       1    1dxy              4.580832      40.890528
                         14       1    1dxz              4.580832      40.890528
                         14       1    1dy2              4.580832      23.608158
                         14       1    1dyz              4.580832      40.890528
                         14       1    1dz2              4.580832      23.608158

                         15       1    1px               6.794656      15.636856
                         15       1    1py               6.794656      15.636856
                         15       1    1pz               6.794656      15.636856

                         16       1    1s                7.257089       3.151243

                         17       1    1px              22.632735      70.365761
                         17       1    1py              22.632735      70.365761
                         17       1    1pz              22.632735      70.365761

       Atomic covalent radius [Angstrom]:                                  0.320

       Atomic van der Waals radius [Angstrom]:                             1.090

     The atoms of this atomic kind are PAW atoms (GAPW):
       Hard Gaussian function radius:                                      1.200
       Rho0 radius:                                                        1.200
       Maximum GTO radius used for PAW projector construction:            24.566

     GAPW Soft Basis Set                                        aug-cc-pV5Z_soft

       Number of orbital shell sets:                                          10
       Number of orbital shells:                                              20
       Number of primitive Cartesian functions:                               20
       Number of Cartesian basis functions:                                  105
       Number of spherical basis functions:                                   80
       Norm type:                                                              2

       Normalised Cartesian orbitals:

                        Set   Shell   Orbital            Exponent    Coefficient

                          1       1    1s                0.020700       0.038894

                          2       1    1s                3.905000       0.000000
                                                         1.283000       0.859172
                                                         0.465500       0.000000
                                                         0.181100       0.000000
                                                         0.072790       0.000000

                          2       2    2s                3.905000       0.000000
                                                         1.283000       0.000000
                                                         0.465500       0.401652
                                                         0.181100       0.000000
                                                         0.072790       0.000000

                          2       3    3s                3.905000       0.088850
                                                         1.283000       0.122259
                                                         0.465500       0.132938
                                                         0.181100       0.086318
                                                         0.072790       0.017622

                          2       4    4s                3.905000       0.000000
                                                         1.283000       0.000000
                                                         0.465500       0.000000
                                                         0.181100       0.197856
                                                         0.072790       0.000000

                          2       5    5s                3.905000       0.000000
                                                         1.283000       0.000000
                                                         0.465500       0.000000
                                                         0.181100       0.000000
                                                         0.072790       0.099877

                          3       1    1px               0.074400       0.055387
                          3       1    1py               0.074400       0.055387
                          3       1    1pz               0.074400       0.055387

                          4       1    1dx2              0.156000       0.063735
                          4       1    1dxy              0.156000       0.110392
                          4       1    1dxz              0.156000       0.110392
                          4       1    1dy2              0.156000       0.063735
                          4       1    1dyz              0.156000       0.110392
                          4       1    1dz2              0.156000       0.063735

                          5       1    1px               4.516000       9.383881
                                                         1.712000       0.000000
                                                         0.649000       0.000000
                                                         0.246000       0.000000
                          5       1    1py               4.516000       9.383881
                                                         1.712000       0.000000
                                                         0.649000       0.000000
                                                         0.246000       0.000000
                          5       1    1pz               4.516000       9.383881
                                                         1.712000       0.000000
                                                         0.649000       0.000000
                                                         0.246000       0.000000

                          5       2    2px               4.516000       0.000000
                                                         1.712000       2.791385
                                                         0.649000       0.000000
                                                         0.246000       0.000000
                          5       2    2py               4.516000       0.000000
                                                         1.712000       2.791385
                                                         0.649000       0.000000
                                                         0.246000       0.000000
                          5       2    2pz               4.516000       0.000000
                                                         1.712000       2.791385
                                                         0.649000       0.000000
                                                         0.246000       0.000000

                          5       3    3px               4.516000       0.000000
                                                         1.712000       0.000000
                                                         0.649000       0.830321
                                                         0.246000       0.000000
                          5       3    3py               4.516000       0.000000
                                                         1.712000       0.000000
                                                         0.649000       0.830321
                                                         0.246000       0.000000
                          5       3    3pz               4.516000       0.000000
                                                         1.712000       0.000000
                                                         0.649000       0.830321
                                                         0.246000       0.000000

                          5       4    4px               4.516000       0.000000
                                                         1.712000       0.000000
                                                         0.649000       0.000000
                                                         0.246000       0.246950
                          5       4    4py               4.516000       0.000000
                                                         1.712000       0.000000
                                                         0.649000       0.000000
                                                         0.246000       0.246950
                          5       4    4pz               4.516000       0.000000
                                                         1.712000       0.000000
                                                         0.649000       0.000000
                                                         0.246000       0.246950

                          6       1    1fx3              0.274000       0.079964
                          6       1    1fx2y             0.274000       0.178804
                          6       1    1fx2z             0.274000       0.178804
                          6       1    1fxy2             0.274000       0.178804
                          6       1    1fxyz             0.274000       0.309698
                          6       1    1fxz2             0.274000       0.178804
                          6       1    1fy3              0.274000       0.079964
                          6       1    1fy2z             0.274000       0.178804
                          6       1    1fyz2             0.274000       0.178804
                          6       1    1fz3              0.274000       0.079964

                          7       1    1dx2              2.950000      10.929442
                                                         1.206000       0.000000
                                                         0.493000       0.000000
                          7       1    1dxy              2.950000      18.930349
                                                         1.206000       0.000000
                                                         0.493000       0.000000
                          7       1    1dxz              2.950000      18.930349
                                                         1.206000       0.000000
                                                         0.493000       0.000000
                          7       1    1dy2              2.950000      10.929442
                                                         1.206000       0.000000
                                                         0.493000       0.000000
                          7       1    1dyz              2.950000      18.930349
                                                         1.206000       0.000000
                                                         0.493000       0.000000
                          7       1    1dz2              2.950000      10.929442
                                                         1.206000       0.000000
                                                         0.493000       0.000000

                          7       2    2dx2              2.950000       0.000000
                                                         1.206000       2.284374
                                                         0.493000       0.000000
                          7       2    2dxy              2.950000       0.000000
                                                         1.206000       3.956652
                                                         0.493000       0.000000
                          7       2    2dxz              2.950000       0.000000
                                                         1.206000       3.956652
                                                         0.493000       0.000000
                          7       2    2dy2              2.950000       0.000000
                                                         1.206000       2.284374
                                                         0.493000       0.000000
                          7       2    2dyz              2.950000       0.000000
                                                         1.206000       3.956652
                                                         0.493000       0.000000
                          7       2    2dz2              2.950000       0.000000
                                                         1.206000       2.284374
                                                         0.493000       0.000000

                          7       3    3dx2              2.950000       0.000000
                                                         1.206000       0.000000
                                                         0.493000       0.477410
                          7       3    3dxy              2.950000       0.000000
                                                         1.206000       0.000000
                                                         0.493000       0.826898
                          7       3    3dxz              2.950000       0.000000
                                                         1.206000       0.000000
                                                         0.493000       0.826898
                          7       3    3dy2              2.950000       0.000000
                                                         1.206000       0.000000
                                                         0.493000       0.477410
                          7       3    3dyz              2.950000       0.000000
                                                         1.206000       0.000000
                                                         0.493000       0.826898
                          7       3    3dz2              2.950000       0.000000
                                                         1.206000       0.000000
                                                         0.493000       0.477410

                          8       1    1gx4              0.543000       0.207556
                          8       1    1gx3y             0.543000       0.549141
                          8       1    1gx3z             0.543000       0.549141
                          8       1    1gx2y2            0.543000       0.708938
                          8       1    1gx2yz            0.543000       1.227917
                          8       1    1gx2z2            0.543000       0.708938
                          8       1    1gxy3             0.543000       0.549141
                          8       1    1gxy2z            0.543000       1.227917
                          8       1    1gxyz2            0.543000       1.227917
                          8       1    1gxz3             0.543000       0.549141
                          8       1    1gy4              0.543000       0.207556
                          8       1    1gy3z             0.543000       0.549141
                          8       1    1gy2z2            0.543000       0.708938
                          8       1    1gyz3             0.543000       0.549141
                          8       1    1gz4              0.543000       0.207556

                          9       1    1fx3              2.506000      11.632200
                                                         0.875000       0.000000
                          9       1    1fx2y             2.506000      26.010389
                                                         0.875000       0.000000
                          9       1    1fx2z             2.506000      26.010389
                                                         0.875000       0.000000
                          9       1    1fxy2             2.506000      26.010389
                                                         0.875000       0.000000
                          9       1    1fxyz             2.506000      45.051316
                                                         0.875000       0.000000
                          9       1    1fxz2             2.506000      26.010389
                                                         0.875000       0.000000
                          9       1    1fy3              2.506000      11.632200
                                                         0.875000       0.000000
                          9       1    1fy2z             2.506000      26.010389
                                                         0.875000       0.000000
                          9       1    1fyz2             2.506000      26.010389
                                                         0.875000       0.000000
                          9       1    1fz3              2.506000      11.632200
                                                         0.875000       0.000000

                          9       2    2fx3              2.506000       0.000000
                                                         0.875000       1.090116
                          9       2    2fx2y             2.506000       0.000000
                                                         0.875000       2.437573
                          9       2    2fx2z             2.506000       0.000000
                                                         0.875000       2.437573
                          9       2    2fxy2             2.506000       0.000000
                                                         0.875000       2.437573
                          9       2    2fxyz             2.506000       0.000000
                                                         0.875000       4.222000
                          9       2    2fxz2             2.506000       0.000000
                                                         0.875000       2.437573
                          9       2    2fy3              2.506000       0.000000
                                                         0.875000       1.090116
                          9       2    2fy2z             2.506000       0.000000
                                                         0.875000       2.437573
                          9       2    2fyz2             2.506000       0.000000
                                                         0.875000       2.437573
                          9       2    2fz3              2.506000       0.000000
                                                         0.875000       1.090116

                         10       1    1gx4              2.358000      11.774186
                         10       1    1gx3y             2.358000      31.151567
                         10       1    1gx3z             2.358000      31.151567
                         10       1    1gx2y2            2.358000      40.216500
                         10       1    1gx2yz            2.358000      69.657021
                         10       1    1gx2z2            2.358000      40.216500
                         10       1    1gxy3             2.358000      31.151567
                         10       1    1gxy2z            2.358000      69.657021
                         10       1    1gxyz2            2.358000      69.657021
                         10       1    1gxz3             2.358000      31.151567
                         10       1    1gy4              2.358000      11.774186
                         10       1    1gy3z             2.358000      31.151567
                         10       1    1gy2z2            2.358000      40.216500
                         10       1    1gyz3             2.358000      31.151567
                         10       1    1gz4              2.358000      11.774186

     AE Potential information for                                            ALL

       Description:                                       All-electron potential
                                          Krack, Parrinello, PCCP 2, 2105 (2000)

       Gaussian exponent of the core charge distribution:              12.500000
       Electronic configuration (s p d ...):                           1   0   0

  2. Atomic kind: N                                     Number of atoms:       5

     Orbital Basis Set                                               aug-cc-pV5Z

       Number of orbital shell sets:                                          12
       Number of orbital shells:                                              27
       Number of primitive Cartesian functions:                               38
       Number of Cartesian basis functions:                                  182
       Number of spherical basis functions:                                  127
       Norm type:                                                              2

       Normalised Cartesian orbitals:

                        Set   Shell   Orbital            Exponent    Coefficient

                          1       1    1px               0.036900       0.023053
                          1       1    1py               0.036900       0.023053
                          1       1    1pz               0.036900       0.023053

                          2       1    1s                0.051800       0.077385

                          3       1    1dx2              0.097100       0.027800
                          3       1    1dxy              0.097100       0.048151
                          3       1    1dxz              0.097100       0.048151
                          3       1    1dy2              0.097100       0.027800
                          3       1    1dyz              0.097100       0.048151
                          3       1    1dz2              0.097100       0.027800

                          4       1    1px             147.000000       0.000000
                                                        34.760000       0.000000
                                                        11.000000       0.000000
                                                         3.995000       0.000000
                                                         1.587000       2.538991
                                                         0.653300       0.000000
                                                         0.268600       0.000000
                                                         0.106700       0.000000
                          4       1    1py             147.000000       0.000000
                                                        34.760000       0.000000
                                                        11.000000       0.000000
                                                         3.995000       0.000000
                                                         1.587000       2.538991
                                                         0.653300       0.000000
                                                         0.268600       0.000000
                                                         0.106700       0.000000
                          4       1    1pz             147.000000       0.000000
                                                        34.760000       0.000000
                                                        11.000000       0.000000
                                                         3.995000       0.000000
                                                         1.587000       2.538991
                                                         0.653300       0.000000
                                                         0.268600       0.000000
                                                         0.106700       0.000000

                          4       2    2px             147.000000       0.000000
                                                        34.760000       0.000000
                                                        11.000000       0.000000
                                                         3.995000       0.000000
                                                         1.587000       0.000000
                                                         0.653300       0.837203
                                                         0.268600       0.000000
                                                         0.106700       0.000000
                          4       2    2py             147.000000       0.000000
                                                        34.760000       0.000000
                                                        11.000000       0.000000
                                                         3.995000       0.000000
                                                         1.587000       0.000000
                                                         0.653300       0.837203
                                                         0.268600       0.000000
                                                         0.106700       0.000000
                          4       2    2pz             147.000000       0.000000
                                                        34.760000       0.000000
                                                        11.000000       0.000000
                                                         3.995000       0.000000
                                                         1.587000       0.000000
                                                         0.653300       0.837203
                                                         0.268600       0.000000
                                                         0.106700       0.000000

                          4       3    3px             147.000000       0.650807
                                                        34.760000       0.852013
                                                        11.000000       0.937059
                                                         3.995000       0.871164
                                                         1.587000       0.629909
                                                         0.653300       0.313544
                                                         0.268600       0.096033
                                                         0.106700       0.011156
                          4       3    3py             147.000000       0.650807
                                                        34.760000       0.852013
                                                        11.000000       0.937059
                                                         3.995000       0.871164
                                                         1.587000       0.629909
                                                         0.653300       0.313544
                                                         0.268600       0.096033
                                                         0.106700       0.011156
                          4       3    3pz             147.000000       0.650807
                                                        34.760000       0.852013
                                                        11.000000       0.937059
                                                         3.995000       0.871164
                                                         1.587000       0.629909
                                                         0.653300       0.313544
                                                         0.268600       0.096033
                                                         0.106700       0.011156

                          4       4    4px             147.000000       0.000000
                                                        34.760000       0.000000
                                                        11.000000       0.000000
                                                         3.995000       0.000000
                                                         1.587000       0.000000
                                                         0.653300       0.000000
                                                         0.268600       0.275628
                                                         0.106700       0.000000
                          4       4    4py             147.000000       0.000000
                                                        34.760000       0.000000
                                                        11.000000       0.000000
                                                         3.995000       0.000000
                                                         1.587000       0.000000
                                                         0.653300       0.000000
                                                         0.268600       0.275628
                                                         0.106700       0.000000
                          4       4    4pz             147.000000       0.000000
                                                        34.760000       0.000000
                                                        11.000000       0.000000
                                                         3.995000       0.000000
                                                         1.587000       0.000000
                                                         0.653300       0.000000
                                                         0.268600       0.275628
                                                         0.106700       0.000000

                          4       5    5px             147.000000       0.000000
                                                        34.760000       0.000000
                                                        11.000000       0.000000
                                                         3.995000       0.000000
                                                         1.587000       0.000000
                                                         0.653300       0.000000
                                                         0.268600       0.000000
                                                         0.106700       0.086925
                          4       5    5py             147.000000       0.000000
                                                        34.760000       0.000000
                                                        11.000000       0.000000
                                                         3.995000       0.000000
                                                         1.587000       0.000000
                                                         0.653300       0.000000
                                                         0.268600       0.000000
                                                         0.106700       0.086925
                          4       5    5pz             147.000000       0.000000
                                                        34.760000       0.000000
                                                        11.000000       0.000000
                                                         3.995000       0.000000
                                                         1.587000       0.000000
                                                         0.653300       0.000000
                                                         0.268600       0.000000
                                                         0.106700       0.086925

                          5       1    1s           129200.000000       0.121422
                                                     19350.000000       0.230350
                                                      4404.000000       0.397627
                                                      1248.000000       0.647228
                                                       408.000000       0.995089
                                                       148.200000       1.418775
                                                        58.500000       1.810832
                                                        24.590000       1.933640
                                                        10.810000       1.535474
                                                         4.882000       0.672463
                                                         2.195000       0.090187
                                                         0.871500       0.001177
                                                         0.350400       0.000271
                                                         0.139700      -0.000001

                          5       2    2s           129200.000000       0.000000
                                                     19350.000000       0.000000
                                                      4404.000000       0.000000
                                                      1248.000000       0.000000
                                                       408.000000       0.000000
                                                       148.200000       0.000000
                                                        58.500000       0.000000
                                                        24.590000       0.000000
                                                        10.810000       0.000000
                                                         4.882000       0.000000
                                                         2.195000       1.285245
                                                         0.871500       0.000000
                                                         0.350400       0.000000
                                                         0.139700       0.000000

                          5       3    3s           129200.000000       0.000000
                                                     19350.000000       0.000000
                                                      4404.000000       0.000000
                                                      1248.000000       0.000000
                                                       408.000000       0.000000
                                                       148.200000       0.000000
                                                        58.500000       0.000000
                                                        24.590000       0.000000
                                                        10.810000       0.000000
                                                         4.882000       0.000000
                                                         2.195000       0.000000
                                                         0.871500       0.642851
                                                         0.350400       0.000000
                                                         0.139700       0.000000

                          5       4    4s           129200.000000       0.000000
                                                     19350.000000       0.000000
                                                      4404.000000       0.000000
                                                      1248.000000       0.000000
                                                       408.000000       0.000000
                                                       148.200000       0.000000
                                                        58.500000       0.000000
                                                        24.590000       0.000000
                                                        10.810000       0.000000
                                                         4.882000       0.000000
                                                         2.195000       0.000000
                                                         0.871500       0.000000
                                                         0.350400       0.324589
                                                         0.139700       0.000000

[...]

 L. Genovese, T. Deutsch, A. Neelov, S. Goedecker, G. Beylkin.
 J. Chem. Phys. 125, 074105 (2006).
 Efficient solution of Poisson's equation with free boundary conditions.
 https://doi.org/10.1063/1.2335442

 M. Frigo, S. G. Johnson.
 Proc. IEEE 93, 216-231 (2005).
 The design and implementation of FFTW3.
 https://doi.org/10.1109/JPROC.2004.840301

 M. Krack, M. Parrinello.
 Phys. Chem. Chem. Phys. 2, 2105-2112 (2000).
 All-electron ab-initio molecular dynamics.
 https://doi.org/10.1039/b001167n

 G. Lippert, J. Hutter, M. Parrinello.
 Theor. Chem. Acc. 103, 124-140 (1999).
 The Gaussian and augmented-plane-wave density functional method for ab initio 
 molecular dynamics simulations.
 https://doi.org/10.1007/s002140050523

 J. P. Perdew, K. Burke, M. Ernzerhof.
 Phys. Rev. Lett. 77, 3865-3868 (1996).
 Generalized gradient approximation made simple.
 https://doi.org/10.1103/PhysRevLett.77.3865


 -------------------------------------------------------------------------------
 -                                                                             -
 -                                T I M I N G                                  -
 -                                                                             -
 -------------------------------------------------------------------------------
 SUBROUTINE                       CALLS  ASD         SELF TIME        TOTAL TIME
                                MAXIMUM       AVERAGE  MAXIMUM  AVERAGE  MAXIMUM
 CP2K                                 1  1.0    0.049    0.106 2986.019 2986.020
 qs_energies                          1  2.0    0.000    0.001 2983.704 2984.231
 mp2_main                             1  3.0    0.000    0.001 2054.159 2054.685
 mp2_gpw_main                         1  4.0    0.000    0.001 2050.282 2050.325
 rpa_ri_compute_en                    1  5.0    0.001    0.001 1998.423 1998.425
 rpa_num_int                          1  6.0    0.002    0.002 1995.572 1995.751
 compute_GW_self_energy             100  7.0    0.002    0.006 1672.061 1676.873
 compute_GW_self_energy_deep        100  8.0 1172.707 1174.046 1670.600 1675.411
 scf_env_do_scf                       1  3.0    0.000    0.000  923.792  923.804
 scf_env_do_scf_inner_loop           77  4.0    0.002    0.006  923.792  923.804
 qs_ks_build_kohn_sham_matrix        78  7.0    0.011    0.013  877.379  877.736
 qs_ks_update_qs_env                 77  5.0    0.001    0.001  874.532  874.885
 rebuild_ks_matrix                   77  6.0    0.000    0.000  874.512  874.865
 hfx_ks_matrix                       78  8.0    0.003    0.004  757.609  757.849
 integrate_four_center               78  9.0    4.475    6.503  757.602  757.833
 integrate_four_center_main          78 10.0    9.489  147.638  372.127  605.795
 integrate_four_center_bin        14044 11.0  362.638  603.660  362.638  603.660
 parallel_gemm_fm                   375  8.4    0.001    0.001  563.284  567.812
 parallel_gemm_fm_gemm              375  9.4    0.001    0.001  563.283  567.811
 cp_fm_gemm                         375 10.4  563.282  567.810  563.282  567.810
 mp_sync                            833  9.5  265.866  346.919  265.866  346.919
 start_bse_calculation                1  7.0    0.001    0.004  311.583  311.584
 cp_fm_syevd                         83  7.0    0.001    0.001  255.395  255.472
 cp_fm_redistribute_end              83  8.0  127.606  254.983  127.692  255.019
 cp_fm_syevd_base                    83  8.0  127.225  254.531  127.225  254.531
 create_hermitian_form_of_ABBA        1  8.0    0.001    0.001  159.564  159.606
 diagonalize_C                        1  8.0    0.001    0.002  140.053  140.078
 cp_fm_power                          2  7.5    0.419    0.436  129.488  129.543
 calc_screening_functions             1 10.0   99.675  102.912  105.333  108.660
 mp2_ri_gpw_compute_in                1  5.0    0.035    0.058   51.741   51.753
 mp2_ri_gpw_compute_in_loop           1  6.0    0.000    0.000   51.647   51.665
 contract_B_L                         4  7.0    0.131    0.163   36.689   47.855
 mp2_eri_3c_integrate                 1  7.0    0.054    0.081   13.137   43.694
 integrate_set_3c                 38880  8.0   12.099   40.935   13.083   43.614
 mp_cart_create                     497 10.1   31.582   42.693   31.583   42.693
 dbt_pgrid_create_expert             84 10.8    0.000    0.000   31.545   42.657
 prepare_gapw_den                    78  8.0    0.002    0.003   29.631   29.651
 sum_up_and_integrate                78  8.0    0.001    0.001   25.449   25.979
 integrate_v_rspace                  78  9.0    0.002    0.002   25.433   25.965
 qs_rho_update_rho_low               78  5.0    0.001    0.001   24.266   24.270
 mp_sum_d                         16559  6.9   21.193   23.869   21.193   23.869
 pw_poisson_solve                    78  8.0    0.565    0.898   23.518   23.525
 mp_alltoall_d11v                  1488  9.5   21.041   23.207   21.041   23.207
 calculate_rho_elec                  78  6.0    0.190    0.270   21.883   21.887
 calculate_rho_atom                 234  9.0    4.527   21.036    4.527   21.036
 fft_wrap_pw1pw2                   1629  9.9    0.024    0.033   19.833   20.307
 mp_sum_dv                        40084  9.7   18.364   19.812   18.364   19.812
 qs_scf_new_mos                      77  5.0    0.001    0.001   19.228   19.348
 fft_wrap_pw1pw2_250               1161 11.1    0.698    0.729   18.662   19.145
 rs_gather_matrices                  78 10.0    0.015    0.093   17.948   19.023
 grid_integrate_task_list            78 10.0    1.054   18.684    1.054   18.684
 fft3d_ps                          1629 11.9    4.851    6.797   17.512   17.990
 density_rs2pw                       78  7.0    0.004    0.005   15.964   17.791
 calculate_vxc_atom                  78  8.0    0.060    0.873   17.573   17.575
 ps_wavelet_solve                    78  9.0    8.484   11.663   17.152   17.524
 eigensolver_symm                    78  6.0    0.004    0.004   17.127   17.142
 gaVxcgb_GC                         154  9.0    0.556   16.621    0.556   16.621
 transfer_rs2pw                     391  8.4    0.007    0.009   14.486   16.372
 mp_waitany                       25692 11.5   12.943   15.230   12.943   15.230
 grid_collocate_task_list            78  7.0    5.209   14.179    5.209   14.179
 transfer_rs2pw_250                 157 10.0    0.837    1.056   11.425   13.470
 mp_alltoall_z22v                  1629 13.9   11.496   12.237   11.496   12.237
 qs_vxc_create                       78  8.0    0.001    0.001   11.069   11.071
 xc_vxc_pw_create                    77  9.0    0.212    0.297   11.068   11.070
 mp_alltoall_d54                     78 10.0    3.486   10.385    3.486   10.385
 powell_optimize                3684579 11.0    9.172    9.587    9.172    9.587
 mp_waitall_1                     75186 12.0    7.408    8.933    7.408    8.933
 integrate_vhg0_rspace               78  8.0    2.044    2.282    8.725    8.839
 xc_pw_derive                       462 11.0    0.003    0.003    8.390    8.546
 cp_fm_syrk                           2  8.5    7.953    7.997    7.953    7.997
 mp_sum_dm                         2890  7.6    7.235    7.505    7.235    7.505
 yz_to_x                            621 13.2    0.294    0.326    6.532    7.206
 potential_pw2rs                     78 10.0    0.017    0.022    6.429    6.982
 rpa_num_int_RPA_matrix_operati     100  7.0    0.001    0.004    6.765    6.766
 mp_alltoall_d45                     79 10.0    5.444    6.284    5.444    6.284
 create_B                             1  8.0    0.000    0.001    6.146    6.204
 transfer_pw2rs                     391 10.6    0.005    0.007    5.937    6.136
 gspace_mixing                       76  5.0    0.185    0.263    5.976    5.977
 xc_pw_divergence                    77 10.0    0.001    0.002    5.823    5.970
 x_to_yz                            696 12.9    0.429    0.632    5.635    5.814
 calc_mat_Q                         100  8.0    0.000    0.001    5.593    5.637
 contract_S_to_Q                    100  9.0    0.001    0.001    5.575    5.620
 xc_rho_set_and_dset_create          77 10.0    0.157    0.214    4.782    5.424
 calculate_rho0_atom                234  9.0    5.057    5.381    5.057    5.381
 create_A                             1  8.0    0.006    0.009    5.330    5.365
 mp_sum_l                          1044  6.4    3.515    5.322    3.515    5.322
 calc_pair_dist_radii                 1 10.0    1.639    1.707    5.153    5.292
 integrate_four_center_load          78 10.0    0.000    0.001    3.483    5.286
 hfx_load_balance                     1 11.0    0.000    0.000    3.482    5.286
 dbt_total                            8  8.0    0.000    0.000    5.263    5.263
 hfx_load_balance_range               1 12.0    0.000    0.003    3.411    5.214
 qs_energies_init_hamiltonians        1  3.0    0.000    0.000    5.070    5.071
 build_core_hamiltonian_matrix        1  4.0    0.000    0.000    5.056    5.056
 overlap_condnum                      1  5.0    0.000    0.001    5.008    5.050
 arnoldi_conjugate_gradient           5  6.0    0.069    0.087    4.678    4.678
 dbt_contract                         4  9.0    0.001    0.001    4.461    4.636
 broyden_mixing                      76  6.0    4.335    4.481    4.503    4.550
 mp_isendrecv_dv                  59592 12.0    1.163    3.695    1.163    3.695
 integrate_four_center_getP          78 10.0    0.160    0.166    3.645    3.682
 integrate_four_center_dist_KS       78 10.0    0.114    0.125    3.667    3.676
 transfer_pw2rs_250                 157 11.0    0.851    0.988    2.991    3.291
 put_rho0_on_grid                    78  9.0    0.201    0.301    3.239    3.259
 dbt_tas_multiply                     8 11.5    0.000    0.000    3.131    3.131
 dbt_tas_total                        8 12.5    0.002    0.002    3.130    3.130
 create_integ_mat                     4  6.0    0.009    0.018    2.835    3.127
 dbcsr_sym_matrix_vector_mult     10015  7.0    0.159    0.171    2.677    3.083
 array2fm                             4  7.0    0.000    0.000    2.502    3.055
 compute_vec_Sigma_x_minus_vxc_       1  4.0    0.000    0.000    2.908    2.908
 dbt_tas_dbm                          8 13.5    0.000    0.000    2.745    2.745
 dbm_multiply                         8 15.5    2.558    2.679    2.558    2.679
 abc_contract                     38880  9.0    0.985    2.679    0.985    2.679
 dbt_tas_mm_1N                        6 14.5    0.000    0.000    2.549    2.670
 calculate_rho_atom_coeff            78  6.0    0.176    0.409    2.381    2.382
 fm_general_add_bse                   5 10.2    0.000    0.000    2.253    2.343
 copy_dbcsr_to_fm                   116  6.6    0.003    0.003    1.999    2.144
 dbt_copy                            12 10.1    0.001    0.001    1.238    1.877
 cp_fm_to_fm_submat_general         112 10.1    1.104    1.857    1.104    1.857
 dbcsr_multiply_generic             138  8.1    0.009    0.010    1.514    1.708
 transfer_rs2pw_30                   78  9.0    0.621    0.666    1.646    1.689
 transfer_pw2rs_30                   78 12.0    0.678    0.741    1.582    1.660
 dbcsr_rep_row_to_rep_col_vec     10015  8.0    0.060    0.086    0.819    1.649
 Vh_1c_gg_integrals                  78  8.0    0.065    1.551    1.621    1.643
 dbcsr_add_d                      15085  7.0    0.014    0.016    0.188    1.599
 dbcsr_add_anytype                15085  8.0    0.018    0.142    0.174    1.583
 dbcsr_desymmetrize_deep            118  7.6    0.039    0.054    1.471    1.558
 cp_fm_uplo_to_full                 103  8.0    1.395    1.474    1.395    1.474
 hybrid_alltoall_any                394 11.0    0.395    0.456    1.415    1.470
 cp_fm_cholesky_invert              101  8.0    1.398    1.461    1.398    1.461
 mp_sendrecv_dv                   29796 10.0    1.371    1.419    1.371    1.419
 array2fm_info                        4  8.0    1.092    1.307    1.102    1.311
 dbt_reshape                          8 11.6    0.139    0.157    0.678    1.305
 xc_functional_eval                 385 10.9    0.001    0.002    0.749    1.287
 pbe_lda_eval                       385 11.9    0.748    1.285    0.748    1.285
 update_ks_atom                      78  8.0    0.145    0.505    0.871    1.187
 create_qs_kind_set                   1  2.0    0.000    0.000    1.178    1.179
 read_qs_kind                         3  3.0    0.660    0.672    1.178    1.178
 mp_isend_dm3                      3132 11.5    0.383    1.131    0.383    1.131
 transfer_rs2pw_90                   78  9.0    0.166    0.190    0.889    1.101
 dbt_communicate_buffer               8 12.6    0.003    0.003    0.453    1.080
 array2fm_fill                        4  8.0    0.368    0.577    0.690    1.065
 mp_waitall_2                        48 15.7    0.402    1.053    0.402    1.053
 transfer_pw2rs_90                   78 12.0    0.148    0.166    0.865    1.015
 compute_Erpa_by_freq_int           100  8.0    0.002    0.002    1.001    1.001
 dbcsr_col_vec_to_rep_row         10015  8.0    0.074    0.095    0.718    1.000
 dbt_remap                            8 10.0    0.002    0.002    0.998    0.999
 cp2k_distribution_to_z_slices       78  9.0    0.432    0.520    0.920    0.994
 multiply_cannon                    138  9.1    0.016    0.017    0.825    0.988
 dbcsr_complete_redistribute        274  8.4    0.161    0.188    0.891    0.987
 dbcsr_finalize                   16582 10.3    0.021    0.322    0.177    0.978
 cp_fm_cholesky_decompose           102  9.0    0.941    0.960    0.941    0.960
 multiply_cannon_loop               138 10.1    0.016    0.019    0.777    0.945
 mp_irecv_dm3                      3132 11.5    0.121    0.914    0.121    0.914
 pw_poisson_rebuild                  78  9.0    0.000    0.000    0.877    0.895
 ps_wavelet_create                    1 10.0    0.000    0.000    0.877    0.895
 RS_z_slice_distribution              1 11.0    0.520    0.864    0.877    0.895
 mp_sum_i                            21  9.7    0.528    0.895    0.528    0.895
 calculate_dm_sparse                 77  6.0    0.001    0.001    0.806    0.894
 restraint_control                    1  2.0    0.000    0.000    0.527    0.894
 mp2_main_alloc_hfx                   1  4.0    0.368    0.894    0.368    0.894
 cp_dbcsr_plus_fm_fm_t               77  7.0    0.001    0.002    0.804    0.893
 mp_bcast_dv                      10098  9.0    0.489    0.879    0.489    0.879
 pw_scatter_p                       852 12.1    0.774    0.819    0.774    0.819
 mp_bcast_dm                       1872  9.0    0.726    0.803    0.726    0.803
 dbcsr_sym_matrix_vector_mult_l   10015  8.0    0.146    0.730    0.210    0.792
 fm_general_add_bse_4_buf_from_       1 10.0    0.545    0.759    0.545    0.759
 fft_wrap_pw1pw2_90                 156 10.5    0.022    0.041    0.700    0.750
 dbt_tas_estimate_result_nze          4 12.0    0.021    0.029    0.735    0.735
 cp_fm_redistribute_start            83  8.0    0.280    0.389    0.477    0.724
 dbt_nd_mp_comm                       8 11.0    0.000    0.000    0.641    0.710
 multiply_cannon_multrec           2024 11.1    0.541    0.683    0.543    0.685
 make_m2s                           276  9.1    0.006    0.007    0.607    0.675
 array2fm_buffer_send                 4  8.0    0.586    0.655    0.586    0.655
 rs_grid_zero                       392 11.2    0.613    0.647    0.613    0.647
 init_scf_run                         1  3.0    0.000    0.000    0.616    0.616
 make_images                        276 10.1    0.076    0.094    0.551    0.616
 dbt_split_blocks_generic            20  8.8    0.240    0.265    0.554    0.606
 mp_wait                            165  9.0    0.322    0.594    0.322    0.594
 fm_general_add_bse_5_comm_buff       5 11.2    0.000    0.000    0.397    0.577
 communicate_buffer                   5 12.2    0.001    0.001    0.397    0.577
 mp_sum_iv                          349  9.5    0.384    0.570    0.384    0.570
 mp_isend_dv                      30068 12.0    0.335    0.562    0.335    0.562
 transfer_rs2pw_10                   78  9.0    0.172    0.188    0.519    0.548
 ao_to_mo_and_store_B_mult_bse_       7  7.0    0.000    0.000    0.426    0.547
 transfer_pw2rs_10                   78 12.0    0.184    0.218    0.494    0.546
 fm_general_add_bse_1_setup           5 11.2    0.472    0.544    0.472    0.544
 mp_alltoall_i22                    392  9.2    0.408    0.542    0.408    0.542
 parser_read_line                140256  4.0    0.046    0.051    0.518    0.525
 pw_gather_p                        777 11.8    0.477    0.517    0.477    0.517
 cp_fm_symm                          78  7.0    0.498    0.515    0.498    0.515
 ao_to_mo_and_store_B_mult_gw_1       7  7.0    0.000    0.000    0.442    0.508
 allocate_matrices_gw                 1  7.0    0.003    0.003    0.327    0.505
 dbcsr_merge_all                  15810 10.9    0.030    0.337    0.139    0.491
 fm_general_add_bse_4_buf_from_       1 10.0    0.449    0.484    0.449    0.484
 parser_read_line_low               155  5.0    0.045    0.210    0.472    0.481
 make_images_data                   276 11.1    0.004    0.005    0.414    0.477
 get_vec_sigma_x                      1  8.0    0.001    0.001    0.295    0.476
 ao_to_mo_and_store_B_E_Ex_gw_1       7  7.0    0.179    0.230    0.401    0.458
 dbcsr_iterator_start            118323  8.7    0.189    0.362    0.215    0.453
 broadcast_input_information        155  6.0    0.108    0.116    0.426    0.451
 ao_to_mo_and_store_B_E_Ex_bse_       7  7.0    0.161    0.221    0.370    0.441
 dbt_split_copyback                   4 10.0    0.285    0.328    0.383    0.433
 qs_init_subsys                       1  2.0    0.009    0.010    0.419    0.420
 copy_fm_to_dbcsr                   158  8.1    0.001    0.001    0.359    0.412
 pw_derive                          696 11.3    0.368    0.407    0.368    0.407
 scf_env_initial_rho_setup            1  4.0    0.000    0.000    0.392    0.393
 dbm_reserve_blocks                  67 14.0    0.329    0.363    0.329    0.363
 pw_integral_ab_c1d_c1d_gs           78  9.0    0.275    0.279    0.347    0.359
 pw_copy                           1165 10.6    0.321    0.347    0.321    0.347
 dbt_tas_reserve_blocks_index        59 13.0    0.005    0.006    0.309    0.342
 dbcsr_copy                       40760  7.5    0.197    0.240    0.288    0.339
 cp_fm_create                       397  7.8    0.289    0.319    0.289    0.319
 dbt_reserve_blocks_index            36 10.8    0.008    0.009    0.291    0.319
 mp_alltoall_z11v                   312 13.5    0.304    0.318    0.304    0.318
 qs_env_setup                         1  3.0    0.000    0.000    0.296    0.314
 rs_scatter_matrices                 78  7.0    0.002    0.007    0.298    0.314
 qs_env_rebuild_pw_env                2  3.5    0.000    0.000    0.294    0.313
 pw_env_rebuild                       1  5.0    0.001    0.001    0.294    0.313
 mult_B_with_W                        1  8.0    0.000    0.000    0.285    0.302
 fft_wrap_pw1pw2_30                 156 10.5    0.005    0.005    0.285    0.300
 -------------------------------------------------------------------------------

 The number of warnings for this run is : 2
 
 -------------------------------------------------------------------------------
  **** **** ******  **  PROGRAM ENDED AT                 2025-03-21 17:07:46.892
 ***** ** ***  *** **   PROGRAM RAN ON                              i08r07c01s05
 **    ****   ******    PROGRAM RAN BY                                   di38fab
 ***** **    ** ** **   PROGRAM PROCESS ID                               2136821
  **** **  *******  **  PROGRAM STOPPED IN /hppfs/scratch/04/di38fab/05_MOL/aUKB
                                           qsEOTmq69kFe5R_nOg/5k_set_final_qzvp/
                                           VUPTAC01/aug-cc-pV5Z/GW+BSE
