 DBCSR| CPU Multiplication driver                                           BLAS (U)
 DBCSR| Multrec recursion limit                                              512 (U)
 DBCSR| Multiplication stack size                                           1000 (D)
 DBCSR| Maximum elements for images                                    UNLIMITED (U)
 DBCSR| Multiplicative factor virtual images                                   1 (U)
 DBCSR| Use multiplication densification                                       T (D)
 DBCSR| Multiplication size stacks                                             3 (U)
 DBCSR| Use memory pool for CPU allocation                                     F (U)
 DBCSR| Number of 3D layers                                               SINGLE (U)
 DBCSR| Use MPI memory allocation                                              F (U)
 DBCSR| Use RMA algorithm                                                      F (U)
 DBCSR| Use Communication thread                                               T (U)
 DBCSR| Communication thread load                                             75 (D)
 DBCSR| MPI: My process id                                                     0
 DBCSR| MPI: Number of processes                                             216
 DBCSR| OMP: Current number of threads                                         4
 DBCSR| OMP: Max number of threads                                             4
 DBCSR| Split modifier for TAS multiplication algorithm                  1.0E+00 (U)


  **** **** ******  **  PROGRAM STARTED AT               2025-03-30 16:16:38.772
 ***** ** ***  *** **   PROGRAM STARTED ON                          i03r01c02s07
 **    ****   ******    PROGRAM STARTED BY                               di38fab
 ***** **    ** ** **   PROGRAM PROCESS ID                               1343317
  **** **  *******  **  PROGRAM STARTED IN /hppfs/scratch/04/di38fab/07_MOL_non_
                                           aug/05_MOL_non_aug/05_MOL/aUKBqsEOTmq
                                           69kFe5R_nOg/5k_set_final_qzvp/ETDIAM1
                                           1/cc-pVDZ/GW+BSE

 CP2K| version string:                 CP2K version 2025.1 (Development Version)
 CP2K| source code revision number:                                  git:d2e611a
 CP2K| cp2kflags: omp libint fftw3 libxc parallel scalapack max_contr=4         
 CP2K| is freely available from                            https://www.cp2k.org/
 CP2K| Program compiled at                       Thu 06 Mar 2025 05:09:20 PM CET
 CP2K| Program compiled on                                               login02
 CP2K| Program compiled for                                        Supermuc-foss
 CP2K| Data directory path                  /hppfs/work/pn36zo/di38fab/cp2k/data
 CP2K| Input file name                                                    GW.inp

 GLOBAL| Force Environment number                                              1
 GLOBAL| Basis set file name            /hppfs/scratch/04/di38fab/04_TMD/BASIS_A
 GLOBAL| Potential file name            /hppfs/work/pn36zo/di38fab/cp2k/data/ALL
 GLOBAL| MM Potential file name                                     MM_POTENTIAL
 GLOBAL| Coordinate file name                                      __STD_INPUT__
 GLOBAL| Method name                                                        CP2K
 GLOBAL| Project name                                                       MoS2
 GLOBAL| Run type                                                         ENERGY
 GLOBAL| FFT library                                                       FFTW3
 GLOBAL| Diagonalization library                                       ScaLAPACK
 GLOBAL| DGEMM library                                                      BLAS
 GLOBAL| Orthonormality check for eigenvectors                          DISABLED
 GLOBAL| Matrix multiplication library                                 ScaLAPACK
 GLOBAL| All-to-all communication in single precision                          F
 GLOBAL| FFTs using library dependent lengths                                  F
 GLOBAL| Grid backend                                                       AUTO
 GLOBAL| Global print level                                               MEDIUM
 GLOBAL| MPI I/O enabled                                                       T
 GLOBAL| Total number of message passing processes                           216
 GLOBAL| Number of threads for this process                                    4
 GLOBAL| This output is from process                                           0
 GLOBAL| OpenMP stack size per thread (OMP_STACKSIZE)                    default
 GLOBAL| CPU model name             Intel(R) Xeon(R) Platinum 8174 CPU @ 3.10GHz

 MEMORY| system memory details [Kb]
 MEMORY|                        rank 0           min           max       average
 MEMORY| MemTotal             98436660      98436660      98436708      98436662
 MEMORY| MemFree              85504992      85497112      85663780      85595863
 MEMORY| Buffers                     0             0             0             0
 MEMORY| Cached                2286148       2282396       2292516       2285013
 MEMORY| Slab                   973116        957032        973116        961404
 MEMORY| SReclaimable           227648        212872        227648        216884
 MEMORY| MemLikelyFree        88018788      87993360      88163260      88097760


 *** Fundamental physical constants (SI units) ***

 *** Literature: B. J. Mohr and B. N. Taylor,
 ***             CODATA recommended values of the fundamental physical
 ***             constants: 2006, Web Version 5.1
 ***             http://physics.nist.gov/constants

 Speed of light in vacuum [m/s]                             2.99792458000000E+08
 Magnetic constant or permeability of vacuum [N/A**2]       1.25663706143592E-06
 Electric constant or permittivity of vacuum [F/m]          8.85418781762039E-12
 Planck constant (h) [J*s]                                  6.62606896000000E-34
 Planck constant (h-bar) [J*s]                              1.05457162825177E-34
 Elementary charge [C]                                      1.60217648700000E-19
 Electron mass [kg]                                         9.10938215000000E-31
 Electron g factor [ ]                                     -2.00231930436220E+00
 Proton mass [kg]                                           1.67262163700000E-27
 Fine-structure constant                                    7.29735253760000E-03
 Rydberg constant [1/m]                                     1.09737315685270E+07
 Avogadro constant [1/mol]                                  6.02214179000000E+23
 Boltzmann constant [J/K]                                   1.38065040000000E-23
 Atomic mass unit [kg]                                      1.66053878200000E-27
 Bohr radius [m]                                            5.29177208590000E-11

 *** Conversion factors ***

 [u] -> [a.u.]                                              1.82288848426455E+03
 [Angstrom] -> [Bohr] = [a.u.]                              1.88972613288564E+00
 [a.u.] = [Bohr] -> [Angstrom]                              5.29177208590000E-01
 [a.u.] -> [s]                                              2.41888432650478E-17
 [a.u.] -> [fs]                                             2.41888432650478E-02
 [a.u.] -> [J]                                              4.35974393937059E-18
 [a.u.] -> [N]                                              8.23872205491840E-08
 [a.u.] -> [K]                                              3.15774647902944E+05
 [a.u.] -> [kJ/mol]                                         2.62549961709828E+03
 [a.u.] -> [kcal/mol]                                       6.27509468713739E+02
 [a.u.] -> [Pa]                                             2.94210107994716E+13
 [a.u.] -> [bar]                                            2.94210107994716E+08
 [a.u.] -> [atm]                                            2.90362800883016E+08
 [a.u.] -> [eV]                                             2.72113838565563E+01
 [a.u.] -> [Hz]                                             6.57968392072181E+15
 [a.u.] -> [1/cm] (wave numbers)                            2.19474631370540E+05
 [a.u./Bohr**2] -> [1/cm]                                   5.14048714338585E+03
 

 CELL_TOP| Volume [angstrom^3]:                                     27000.000000
 CELL_TOP| Vector a [angstrom    30.000     0.000     0.000   |a| =    30.000000
 CELL_TOP| Vector b [angstrom     0.000    30.000     0.000   |b| =    30.000000
 CELL_TOP| Vector c [angstrom     0.000     0.000    30.000   |c| =    30.000000
 CELL_TOP| Angle (b,c), alpha [degree]:                                90.000000
 CELL_TOP| Angle (a,c), beta  [degree]:                                90.000000
 CELL_TOP| Angle (a,b), gamma [degree]:                                90.000000
 CELL_TOP| Numerically orthorhombic:                                         YES
 CELL_TOP| Periodicity                                                      NONE

 GENERATE|  Preliminary Number of Bonds generated:                             0
 GENERATE|  Achieved consistency in connectivity generation.

 CELL| Volume [angstrom^3]:                                         27000.000000
 CELL| Vector a [angstrom]:      30.000     0.000     0.000   |a| =    30.000000
 CELL| Vector b [angstrom]:       0.000    30.000     0.000   |b| =    30.000000
 CELL| Vector c [angstrom]:       0.000     0.000    30.000   |c| =    30.000000
 CELL| Angle (b,c), alpha [degree]:                                    90.000000
 CELL| Angle (a,c), beta  [degree]:                                    90.000000
 CELL| Angle (a,b), gamma [degree]:                                    90.000000
 CELL| Numerically orthorhombic:                                             YES
 CELL| Periodicity                                                          NONE

 CELL_REF| Volume [angstrom^3]:                                     27000.000000
 CELL_REF| Vector a [angstrom    30.000     0.000     0.000   |a| =    30.000000
 CELL_REF| Vector b [angstrom     0.000    30.000     0.000   |b| =    30.000000
 CELL_REF| Vector c [angstrom     0.000     0.000    30.000   |c| =    30.000000
 CELL_REF| Angle (b,c), alpha [degree]:                                90.000000
 CELL_REF| Angle (a,c), beta  [degree]:                                90.000000
 CELL_REF| Angle (a,b), gamma [degree]:                                90.000000
 CELL_REF| Numerically orthorhombic:                                         YES
 CELL_REF| Periodicity                                                      NONE

 *******************************************************************************
 *******************************************************************************
 **                                                                           **
 **     #####                         ##              ##                      **
 **    ##   ##            ##          ##              ##                      **
 **   ##     ##                       ##            ######                    **
 **   ##     ##  ##   ##  ##   #####  ##  ##   ####   ##    #####    #####    **
 **   ##     ##  ##   ##  ##  ##      ## ##   ##      ##   ##   ##  ##   ##   **
 **   ##  ## ##  ##   ##  ##  ##      ####     ###    ##   ######   ######    **
 **    ##  ###   ##   ##  ##  ##      ## ##      ##   ##   ##       ##        **
 **     #######   #####   ##   #####  ##  ##  ####    ##    #####   ##        **
 **           ##                                                    ##        **
 **                                                                           **
 **                                                ... make the atoms dance   **
 **                                                                           **
 **            Copyright (C) by CP2K developers group (2000-2025)             **
 **                      J. Chem. Phys. 152, 194103 (2020)                    **
 **                                                                           **
 *******************************************************************************

 DFT| Spin restricted Kohn-Sham (RKS) calculation                            RKS
 DFT| Multiplicity                                                             1
 DFT| Number of spin states                                                    1
 DFT| Charge                                                                   0
 DFT| Self-interaction correction (SIC)                                       NO
 DFT| Cutoffs: density                                              1.000000E-10
 DFT|          gradient                                             1.000000E-10
 DFT|          tau                                                  1.000000E-10
 DFT|          cutoff_smoothing_range                               0.000000E+00
 DFT| XC density smoothing                                                  NONE
 DFT| XC derivatives                                                          PW

 FUNCTIONAL| PBE:
 FUNCTIONAL| J.P.Perdew, K.Burke, M.Ernzerhof, Phys. Rev. Letter, vol. 77, n 18,
 FUNCTIONAL|  pp. 3865-3868, (1996)sx=0.750sc=1.000{spin unpolarized}           


 QS| Method:                                                                GAPW
 QS| Density plane wave grid type                        NON-SPHERICAL FULLSPACE
 QS| Number of grid levels:                                                    4
 QS| Density cutoff [a.u.]:                                                250.0
 QS| Multi grid cutoff [a.u.]: 1) grid level                               250.0
 QS|                           2) grid level                                83.3
 QS|                           3) grid level                                27.8
 QS|                           4) grid level                                 9.3
 QS| Grid level progression factor:                                          3.0
 QS| Relative density cutoff [a.u.]:                                        50.0
 QS| Interaction thresholds: eps_pgf_orb:                                1.0E-12
 QS|                         eps_filter_matrix:                          0.0E+00
 QS|                         eps_core_charge:                            1.0E-14
 QS|                         eps_rho_gspace:                             1.0E-12
 QS|                         eps_rho_rspace:                             1.0E-12
 QS|                         eps_gvg_rspace:                             1.0E-06
 QS|                         eps_ppl:                                    1.0E-02
 QS|                         eps_ppnl:                                   1.0E-08
 QS| GAPW|      One center basis from orbital basis primitives
 QS| GAPW|                   eps_fit:                                    1.0E-04
 QS| GAPW|                   eps_iso:                                    1.0E-12
 QS| GAPW|                   eps_svd:                                    1.0E-08
 QS| GAPW|                   eps_cpc:                                    1.0E-12
 QS| GAPW|   atom-r-grid: quadrature:                                     GC_LOG
 QS| GAPW|      atom-s-grid:  max l :                                          4
 QS| GAPW|      max_l_rho0 :                                                   2


 ATOMIC KIND INFORMATION

  1. Atomic kind: N                                     Number of atoms:       2

     Orbital Basis Set                                                   cc-pVDZ

       Number of orbital shell sets:                                           3
       Number of orbital shells:                                               6
       Number of primitive Cartesian functions:                               14
       Number of Cartesian basis functions:                                   15
       Number of spherical basis functions:                                   14
       Norm type:                                                              2

       Normalised Cartesian orbitals:

                        Set   Shell   Orbital            Exponent    Coefficient

                          1       1    1px              13.550000       1.479258
                                                         2.917000       1.180072
                                                         0.797300       0.548036
                                                         0.218500       0.098423
                          1       1    1py              13.550000       1.479258
                                                         2.917000       1.180072
                                                         0.797300       0.548036
                                                         0.218500       0.098423
                          1       1    1pz              13.550000       1.479258
                                                         2.917000       1.180072
                                                         0.797300       0.548036
                                                         0.218500       0.098423

                          1       2    2px              13.550000       0.000000
                                                         2.917000       0.000000
                                                         0.797300       0.000000
                                                         0.218500       0.212939
                          1       2    2py              13.550000       0.000000
                                                         2.917000       0.000000
                                                         0.797300       0.000000
                                                         0.218500       0.212939
                          1       2    2pz              13.550000       0.000000
                                                         2.917000       0.000000
                                                         0.797300       0.000000
                                                         0.218500       0.212939

                          2       1    1s             9046.000000       0.462754
                                                      1357.000000       0.858723
                                                       309.300000       1.440591
                                                        87.730000       2.108533
                                                        28.560000       2.454153
                                                        10.210000       1.825915
                                                         3.838000       0.543758
                                                         0.746600       0.008838
                                                         0.224800      -0.000666

                          2       2    2s             9046.000000      -0.101145
                                                      1357.000000      -0.192492
                                                       309.300000      -0.314968
                                                        87.730000      -0.501437
                                                        28.560000      -0.593976
                                                        10.210000      -0.643503
                                                         3.838000      -0.238093
                                                         0.746600       0.314268
                                                         0.224800       0.134678

                          2       3    3s             9046.000000       0.000000
                                                      1357.000000       0.000000
                                                       309.300000       0.000000
                                                        87.730000       0.000000
                                                        28.560000       0.000000
                                                        10.210000       0.000000
                                                         3.838000       0.000000
                                                         0.746600       0.000000
                                                         0.224800       0.232679

                          3       1    1dx2              0.817000       1.155575
                          3       1    1dxy              0.817000       2.001514
                          3       1    1dxz              0.817000       2.001514
                          3       1    1dy2              0.817000       1.155575
                          3       1    1dyz              0.817000       2.001514
                          3       1    1dz2              0.817000       1.155575

     RI Auxiliary Basis Set                                        cc-pVDZ-RIFIT

       Number of orbital shell sets:                                          18
       Number of orbital shells:                                              18
       Number of primitive Cartesian functions:                               18
       Number of Cartesian basis functions:                                   66
       Number of spherical basis functions:                                   56
       Norm type:                                                              2

       Normalised Cartesian orbitals:

                        Set   Shell   Orbital            Exponent    Coefficient

                          1       1    1s                0.327261       0.308376

                          2       1    1px               0.461104       0.541613
                          2       1    1py               0.461104       0.541613
                          2       1    1pz               0.461104       0.541613

                          3       1    1dx2              0.477850       0.452033
                          3       1    1dxy              0.477850       0.782943
                          3       1    1dxz              0.477850       0.782943
                          3       1    1dy2              0.477850       0.452033
                          3       1    1dyz              0.477850       0.782943
                          3       1    1dz2              0.477850       0.452033

                          4       1    1s                0.723539       0.559122

                          5       1    1px               1.094610       1.595932
                          5       1    1py               1.094610       1.595932
                          5       1    1pz               1.094610       1.595932

                          6       1    1s                1.123240       0.777615

                          7       1    1dx2              1.285370       2.553929
                          7       1    1dxy              1.285370       4.423534
                          7       1    1dxz              1.285370       4.423534
                          7       1    1dy2              1.285370       2.553929
                          7       1    1dyz              1.285370       4.423534
                          7       1    1dz2              1.285370       2.553929

                          8       1    1fx3              1.334730       2.818965
                          8       1    1fx2y             1.334730       6.303397
                          8       1    1fx2z             1.334730       6.303397
                          8       1    1fxy2             1.334730       6.303397
                          8       1    1fxyz             1.334730      10.917804
                          8       1    1fxz2             1.334730       6.303397
                          8       1    1fy3              1.334730       2.818965
                          8       1    1fy2z             1.334730       6.303397
                          8       1    1fyz2             1.334730       6.303397
                          8       1    1fz3              1.334730       2.818965

                          9       1    1s                2.344260       1.350251

                         10       1    1px               2.533640       4.556393
                         10       1    1py               2.533640       4.556393
                         10       1    1pz               2.533640       4.556393

                         11       1    1fx3              3.401180      23.127095
                         11       1    1fx2y             3.401180      51.713757
                         11       1    1fx2z             3.401180      51.713757
                         11       1    1fxy2             3.401180      51.713757
                         11       1    1fxyz             3.401180      89.570854
                         11       1    1fxz2             3.401180      51.713757
                         11       1    1fy3              3.401180      23.127095
                         11       1    1fy2z             3.401180      51.713757
                         11       1    1fyz2             3.401180      51.713757
                         11       1    1fz3              3.401180      23.127095

                         12       1    1dx2              3.428160      14.215638
                         12       1    1dxy              3.428160      24.622207
                         12       1    1dxz              3.428160      24.622207
                         12       1    1dy2              3.428160      14.215638
                         12       1    1dyz              3.428160      24.622207
                         12       1    1dz2              3.428160      14.215638

                         13       1    1s                7.624360       3.270112

                         14       1    1px               8.552990      20.849111
                         14       1    1py               8.552990      20.849111
                         14       1    1pz               8.552990      20.849111

                         15       1    1dx2             12.327800     133.493224
                         15       1    1dxy             12.327800     231.217046
                         15       1    1dxz             12.327800     231.217046
                         15       1    1dy2             12.327800     133.493224
                         15       1    1dyz             12.327800     231.217046
                         15       1    1dz2             12.327800     133.493224

                         16       1    1s               20.467900       6.858278

                         17       1    1px              29.237300      96.908455
                         17       1    1py              29.237300      96.908455
                         17       1    1pz              29.237300      96.908455

                         18       1    1s               87.686400      20.422517

       Atomic covalent radius [Angstrom]:                                  0.750

       Atomic van der Waals radius [Angstrom]:                             1.550

     The atoms of this atomic kind are PAW atoms (GAPW):
       Hard Gaussian function radius:                                      1.512
       Rho0 radius:                                                        1.512
       Maximum GTO radius used for PAW projector construction:            24.566

     GAPW Soft Basis Set                                            cc-pVDZ_soft

       Number of orbital shell sets:                                           3
       Number of orbital shells:                                               6
       Number of primitive Cartesian functions:                                7
       Number of Cartesian basis functions:                                   15
       Number of spherical basis functions:                                   14
       Norm type:                                                              2

       Normalised Cartesian orbitals:

                        Set   Shell   Orbital            Exponent    Coefficient

                          1       1    1px               2.917000       1.180072
                                                         0.797300       0.548036
                                                         0.218500       0.098423
                          1       1    1py               2.917000       1.180072
                                                         0.797300       0.548036
                                                         0.218500       0.098423
                          1       1    1pz               2.917000       1.180072
                                                         0.797300       0.548036
                                                         0.218500       0.098423

                          1       2    2px               2.917000       0.000000
                                                         0.797300       0.000000
                                                         0.218500       0.212939
                          1       2    2py               2.917000       0.000000
                                                         0.797300       0.000000
                                                         0.218500       0.212939
                          1       2    2pz               2.917000       0.000000
                                                         0.797300       0.000000
                                                         0.218500       0.212939

                          2       1    1s                3.838000       0.543758
                                                         0.746600       0.008838
                                                         0.224800      -0.000666

                          2       2    2s                3.838000      -0.238093
                                                         0.746600       0.314268
                                                         0.224800       0.134678

                          2       3    3s                3.838000       0.000000
                                                         0.746600       0.000000
                                                         0.224800       0.232679

                          3       1    1dx2              0.817000       1.155575
                          3       1    1dxy              0.817000       2.001514
                          3       1    1dxz              0.817000       2.001514
                          3       1    1dy2              0.817000       1.155575
                          3       1    1dyz              0.817000       2.001514
                          3       1    1dz2              0.817000       1.155575

     AE Potential information for                                            ALL

       Description:                                       All-electron potential
                                          Krack, Parrinello, PCCP 2, 2105 (2000)

       Gaussian exponent of the core charge distribution:               5.979100
       Electronic configuration (s p d ...):                           4   3   0

  2. Atomic kind: H                                     Number of atoms:       8

     Orbital Basis Set                                                   cc-pVDZ

       Number of orbital shell sets:                                           2
       Number of orbital shells:                                               3
       Number of primitive Cartesian functions:                                5
       Number of Cartesian basis functions:                                    5
       Number of spherical basis functions:                                    5
       Norm type:                                                              2

       Normalised Cartesian orbitals:

                        Set   Shell   Orbital            Exponent    Coefficient

                          1       1    1s               13.010000       0.096107
                                                         1.962000       0.163020
                                                         0.444600       0.185545
                                                         0.122000       0.073744

                          1       2    2s               13.010000       0.000000
                                                         1.962000       0.000000
                                                         0.444600       0.000000
                                                         0.122000       0.147123

                          2       1    1px               0.727000       0.956881
                          2       1    1py               0.727000       0.956881
                          2       1    1pz               0.727000       0.956881

     RI Auxiliary Basis Set                                        cc-pVDZ-RIFIT

       Number of orbital shell sets:                                           6
       Number of orbital shells:                                               6
       Number of primitive Cartesian functions:                                6
       Number of Cartesian basis functions:                                   15
       Number of spherical basis functions:                                   14
       Norm type:                                                              2

       Normalised Cartesian orbitals:

                        Set   Shell   Orbital            Exponent    Coefficient

                          1       1    1s                0.291662       0.282859

                          2       1    1px               0.986401       1.401222
                          2       1    1py               0.986401       1.401222
                          2       1    1pz               0.986401       1.401222

                          3       1    1s                1.142965       0.787834

                          4       1    1dx2              1.172083       2.173136
                          4       1    1dxy              1.172083       3.763982
                          4       1    1dxz              1.172083       3.763982
                          4       1    1dy2              1.172083       2.173136
                          4       1    1dyz              1.172083       3.763982
                          4       1    1dz2              1.172083       2.173136

                          5       1    1px               1.914964       3.211004
                          5       1    1py               1.914964       3.211004
                          5       1    1pz               1.914964       3.211004

                          6       1    1s                5.115890       2.424381

       Atomic covalent radius [Angstrom]:                                  0.320

       Atomic van der Waals radius [Angstrom]:                             1.090

     The atoms of this atomic kind are PAW atoms (GAPW):
       Hard Gaussian function radius:                                      1.200
       Rho0 radius:                                                        1.200
       Maximum GTO radius used for PAW projector construction:            24.566

     GAPW Soft Basis Set                                            cc-pVDZ_soft

       Number of orbital shell sets:                                           2
       Number of orbital shells:                                               3
       Number of primitive Cartesian functions:                                4
       Number of Cartesian basis functions:                                    5
       Number of spherical basis functions:                                    5
       Norm type:                                                              2

       Normalised Cartesian orbitals:

                        Set   Shell   Orbital            Exponent    Coefficient

                          1       1    1s                1.962000       0.163020
                                                         0.444600       0.185545
                                                         0.122000       0.073744

                          1       2    2s                1.962000       0.000000
                                                         0.444600       0.000000
                                                         0.122000       0.147123

                          2       1    1px               0.727000       0.956881
                          2       1    1py               0.727000       0.956881
                          2       1    1pz               0.727000       0.956881

     AE Potential information for                                            ALL

       Description:                                       All-electron potential
                                          Krack, Parrinello, PCCP 2, 2105 (2000)

       Gaussian exponent of the core charge distribution:              12.500000
       Electronic configuration (s p d ...):                           1   0   0

  3. Atomic kind: C                                     Number of atoms:       2

     Orbital Basis Set                                                   cc-pVDZ

       Number of orbital shell sets:                                           3
       Number of orbital shells:                                               6
       Number of primitive Cartesian functions:                               14
       Number of Cartesian basis functions:                                   15
       Number of spherical basis functions:                                   14
       Norm type:                                                              2

       Normalised Cartesian orbitals:

                        Set   Shell   Orbital            Exponent    Coefficient

                          1       1    1px               9.439000       0.898722
                                                         2.002000       0.711071
                                                         0.545600       0.339917
                                                         0.151700       0.063270
                          1       1    1py               9.439000       0.898722
                                                         2.002000       0.711071
                                                         0.545600       0.339917
                                                         0.151700       0.063270
                          1       1    1pz               9.439000       0.898722
                                                         2.002000       0.711071
                                                         0.545600       0.339917
                                                         0.151700       0.063270

                          1       2    2px               9.439000       0.000000
                                                         2.002000       0.000000
                                                         0.545600       0.000000
                                                         0.151700       0.134950
                          1       2    2py               9.439000       0.000000
                                                         2.002000       0.000000
                                                         0.545600       0.000000
                                                         0.151700       0.134950
                          1       2    2pz               9.439000       0.000000
                                                         2.002000       0.000000
                                                         0.545600       0.000000
                                                         0.151700       0.134950

                          2       1    1s             6665.000000       0.363803
                                                      1000.000000       0.675392
                                                       228.000000       1.132301
                                                        64.710000       1.654004
                                                        21.060000       1.924978
                                                         7.495000       1.448149
                                                         2.797000       0.439427
                                                         0.521500       0.006650
                                                         0.159600      -0.000574

                          2       2    2s             6665.000000      -0.076756
                                                      1000.000000      -0.146257
                                                       228.000000      -0.239407
                                                        64.710000      -0.379069
                                                        21.060000      -0.448104
                                                         7.495000      -0.484201
                                                         2.797000      -0.196168
                                                         0.521500       0.238162
                                                         0.159600       0.104468

                          2       3    3s             6665.000000       0.000000
                                                      1000.000000       0.000000
                                                       228.000000       0.000000
                                                        64.710000       0.000000
                                                        21.060000       0.000000
                                                         7.495000       0.000000
                                                         2.797000       0.000000
                                                         0.521500       0.000000
                                                         0.159600       0.179964

                          3       1    1dx2              0.550000       0.578155
                          3       1    1dxy              0.550000       1.001394
                          3       1    1dxz              0.550000       1.001394
                          3       1    1dy2              0.550000       0.578155
                          3       1    1dyz              0.550000       1.001394
                          3       1    1dz2              0.550000       0.578155

     RI Auxiliary Basis Set                                        cc-pVDZ-RIFIT

       Number of orbital shell sets:                                          18
       Number of orbital shells:                                              18
       Number of primitive Cartesian functions:                               18
       Number of Cartesian basis functions:                                   66
       Number of spherical basis functions:                                   56
       Norm type:                                                              2

       Normalised Cartesian orbitals:

                        Set   Shell   Orbital            Exponent    Coefficient

                          1       1    1s                0.206796       0.218558

                          2       1    1px               0.321667       0.345301
                          2       1    1py               0.321667       0.345301
                          2       1    1pz               0.321667       0.345301

                          3       1    1dx2              0.340842       0.250252
                          3       1    1dxy              0.340842       0.433449
                          3       1    1dxz              0.340842       0.433449
                          3       1    1dy2              0.340842       0.250252
                          3       1    1dyz              0.340842       0.433449
                          3       1    1dz2              0.340842       0.250252

                          4       1    1s                0.409072       0.364552

                          5       1    1px               0.754465       1.002280
                          5       1    1py               0.754465       1.002280
                          5       1    1pz               0.754465       1.002280

                          6       1    1s                0.782697       0.593069

                          7       1    1fx3              0.895756       1.149162
                          7       1    1fx2y             0.895756       2.569605
                          7       1    1fx2z             0.895756       2.569605
                          7       1    1fxy2             0.895756       2.569605
                          7       1    1fxyz             0.895756       4.450686
                          7       1    1fxz2             0.895756       2.569605
                          7       1    1fy3              0.895756       1.149162
                          7       1    1fy2z             0.895756       2.569605
                          7       1    1fyz2             0.895756       2.569605
                          7       1    1fz3              0.895756       1.149162

                          8       1    1dx2              0.922515       1.429266
                          8       1    1dxy              0.922515       2.475561
                          8       1    1dxz              0.922515       2.475561
                          8       1    1dy2              0.922515       1.429266
                          8       1    1dyz              0.922515       2.475561
                          8       1    1dz2              0.922515       1.429266

                          9       1    1s                1.513330       0.972434

                         10       1    1px               1.720600       2.808924
                         10       1    1py               1.720600       2.808924
                         10       1    1pz               1.720600       2.808924

                         11       1    1dx2              2.678440       9.230024
                         11       1    1dxy              2.678440      15.986870
                         11       1    1dxz              2.678440      15.986870
                         11       1    1dy2              2.678440       9.230024
                         11       1    1dyz              2.678440      15.986870
                         11       1    1dz2              2.678440       9.230024

                         12       1    1fx3              2.742930      14.254027
                         12       1    1fx2y             2.742930      31.872974
                         12       1    1fx2z             2.742930      31.872974
                         12       1    1fxy2             2.742930      31.872974
                         12       1    1fxyz             2.742930      55.205610
                         12       1    1fxz2             2.742930      31.872974
                         12       1    1fy3              2.742930      14.254027
                         12       1    1fy2z             2.742930      31.872974
                         12       1    1fyz2             2.742930      31.872974
                         12       1    1fz3              2.742930      14.254027

                         13       1    1s                4.772770       2.301378

                         14       1    1px               6.005230      13.399918
                         14       1    1py               6.005230      13.399918
                         14       1    1pz               6.005230      13.399918

                         15       1    1dx2             10.171500      95.352748
                         15       1    1dxy             10.171500     165.155804
                         15       1    1dxz             10.171500     165.155804
                         15       1    1dy2             10.171500      95.352748
                         15       1    1dyz             10.171500     165.155804
                         15       1    1dz2             10.171500      95.352748

                         16       1    1s               13.804500       5.104176

                         17       1    1px              20.885100      63.640823
                         17       1    1py              20.885100      63.640823
                         17       1    1pz              20.885100      63.640823

                         18       1    1s               62.745300      15.888979

       Atomic covalent radius [Angstrom]:                                  0.770

       Atomic van der Waals radius [Angstrom]:                             1.700

     The atoms of this atomic kind are PAW atoms (GAPW):
       Hard Gaussian function radius:                                      1.512
       Rho0 radius:                                                        1.512
       Maximum GTO radius used for PAW projector construction:            24.566

     GAPW Soft Basis Set                                            cc-pVDZ_soft

       Number of orbital shell sets:                                           3
       Number of orbital shells:                                               6
       Number of primitive Cartesian functions:                                7
       Number of Cartesian basis functions:                                   15
       Number of spherical basis functions:                                   14
       Norm type:                                                              2

       Normalised Cartesian orbitals:

                        Set   Shell   Orbital            Exponent    Coefficient

                          1       1    1px               2.002000       0.711071
                                                         0.545600       0.339917
                                                         0.151700       0.063270
                          1       1    1py               2.002000       0.711071
                                                         0.545600       0.339917
                                                         0.151700       0.063270
                          1       1    1pz               2.002000       0.711071
                                                         0.545600       0.339917
                                                         0.151700       0.063270

                          1       2    2px               2.002000       0.000000
                                                         0.545600       0.000000
                                                         0.151700       0.134950
                          1       2    2py               2.002000       0.000000
                                                         0.545600       0.000000
                                                         0.151700       0.134950
                          1       2    2pz               2.002000       0.000000
                                                         0.545600       0.000000
                                                         0.151700       0.134950

                          2       1    1s                2.797000       0.439427
                                                         0.521500       0.006650
                                                         0.159600      -0.000574

                          2       2    2s                2.797000      -0.196168
                                                         0.521500       0.238162
                                                         0.159600       0.104468

                          2       3    3s                2.797000       0.000000
                                                         0.521500       0.000000
                                                         0.159600       0.179964

                          3       1    1dx2              0.550000       0.578155
                          3       1    1dxy              0.550000       1.001394
                          3       1    1dxz              0.550000       1.001394
                          3       1    1dy2              0.550000       0.578155
                          3       1    1dyz              0.550000       1.001394
                          3       1    1dz2              0.550000       0.578155

     AE Potential information for                                            ALL

       Description:                                       All-electron potential
                                          Krack, Parrinello, PCCP 2, 2105 (2000)

       Gaussian exponent of the core charge distribution:               4.109048
       Electronic configuration (s p d ...):                           4   2   0


 MOLECULE KIND INFORMATION


 All atoms are their own molecule, skipping detailed information


 TOTAL NUMBERS AND MAXIMUM NUMBERS

  Total number of            - Atomic kinds:                                   3
                             - Atoms:                                         12
                             - Shell sets:                                    28
                             - Shells:                                        48
                             - Primitive Cartesian functions:                 96
                             - Cartesian basis functions:                    100
                             - Spherical basis functions:                     96

  Maximum angular momentum of the orbital basis functions:                     2


 MODULE QUICKSTEP: ATOMIC COORDINATES IN ANGSTROM

   Atom Kind Element         X             Y             Z       Z(eff)     Mass
      1    1 N     7     13.716431     14.040344     13.915610   7.0000  14.0067
      2    2 H     1     13.150715     14.830988     13.603443   1.0000   1.0079
      3    2 H     1     13.188569     13.584483     14.661352   1.0000   1.0079
      4    3 C     6     15.015420     14.501341     14.412480   6.0000  12.0107
      5    2 H     1     15.560191     14.956121     13.568606   1.0000   1.0079
      6    2 H     1     15.600316     13.614681     14.708164   1.0000   1.0079
      7    1 N     7     16.283569     15.959656     16.084390   7.0000  14.0067
      8    2 H     1     16.849285     15.169012     16.396557   1.0000   1.0079
      9    2 H     1     16.811431     16.415517     15.338648   1.0000   1.0079
     10    3 C     6     14.984580     15.498659     15.587520   6.0000  12.0107
     11    2 H     1     14.439809     15.043879     16.431394   1.0000   1.0079
     12    2 H     1     14.399684     16.385319     15.291836   1.0000   1.0079



 SCF PARAMETERS         Density guess:                                    ATOMIC
                        --------------------------------------------------------
                        max_scf:                                             500
                        max_scf_history:                                       0
                        max_diis:                                              4
                        --------------------------------------------------------
                        eps_scf:                                        1.00E-06
                        eps_scf_history:                                0.00E+00
                        eps_diis:                                       1.00E-01
                        eps_eigval:                                     1.00E-05
                        --------------------------------------------------------
                        level_shift [a.u.]:                             0.000000
                        added MOs                                        79    0
                        --------------------------------------------------------
                        Mixing method:                            BROYDEN_MIXING
                                                charge density mixing in g-space
                        --------------------------------------------------------
                        No outer SCF

 PW_GRID| Information for grid number                                          1
 PW_GRID| Grid distributed over                                   216 processors
 PW_GRID| Real space group dimensions                                   216    1
 PW_GRID| the grid is blocked:                                                NO
 PW_GRID| Cutoff [a.u.]                                                    250.0
 PW_GRID| spherical cutoff:                                                   NO
 PW_GRID|   Bounds   1           -202     202                Points:         405
 PW_GRID|   Bounds   2           -202     202                Points:         405
 PW_GRID|   Bounds   3           -202     202                Points:         405
 PW_GRID| Volume element (a.u.^3)  0.2743E-02     Volume (a.u.^3)    182205.0337
 PW_GRID| Grid span                                                    FULLSPACE
 PW_GRID|   Distribution                         Average         Max         Min
 PW_GRID|   G-Vectors                           307546.9      307800      307395
 PW_GRID|   G-Rays                                 759.4         760         759
 PW_GRID|   Real Space Points                   307546.9      328050      164025

 PW_GRID| Information for grid number                                          2
 PW_GRID| Number of the reference grid                                         1
 PW_GRID| Grid distributed over                                   216 processors
 PW_GRID| Real space group dimensions                                   216    1
 PW_GRID| the grid is blocked:                                                NO
 PW_GRID| Cutoff [a.u.]                                                     83.3
 PW_GRID| spherical cutoff:                                                   NO
 PW_GRID|   Bounds   1           -120     119                Points:         240
 PW_GRID|   Bounds   2           -120     119                Points:         240
 PW_GRID|   Bounds   3           -120     119                Points:         240
 PW_GRID| Volume element (a.u.^3)  0.1318E-01     Volume (a.u.^3)    182205.0337
 PW_GRID| Grid span                                                    FULLSPACE
 PW_GRID|   Distribution                         Average         Max         Min
 PW_GRID|   G-Vectors                            64000.0       64560       63360
 PW_GRID|   G-Rays                                 266.7         269         264
 PW_GRID|   Real Space Points                    64000.0      115200       57600

 PW_GRID| Information for grid number                                          3
 PW_GRID| Number of the reference grid                                         1
 PW_GRID| Grid distributed over                                   216 processors
 PW_GRID| Real space group dimensions                                    12   18
 PW_GRID| the grid is blocked:                                                NO
 PW_GRID| Cutoff [a.u.]                                                     27.8
 PW_GRID| spherical cutoff:                                                   NO
 PW_GRID|   Bounds   1            -67      67                Points:         135
 PW_GRID|   Bounds   2            -67      67                Points:         135
 PW_GRID|   Bounds   3            -67      67                Points:         135
 PW_GRID| Volume element (a.u.^3)  0.7406E-01     Volume (a.u.^3)    182205.0337
 PW_GRID| Grid span                                                    FULLSPACE
 PW_GRID|   Distribution                         Average         Max         Min
 PW_GRID|   G-Vectors                            11390.6       11610       11205
 PW_GRID|   G-Rays                                  84.4          86          83
 PW_GRID|   Real Space Points                    11390.6       12960       10395

 PW_GRID| Information for grid number                                          4
 PW_GRID| Number of the reference grid                                         1
 PW_GRID| Grid distributed over                                   216 processors
 PW_GRID| Real space group dimensions                                    12   18
 PW_GRID| the grid is blocked:                                                NO
 PW_GRID| Cutoff [a.u.]                                                      9.3
 PW_GRID| spherical cutoff:                                                   NO
 PW_GRID|   Bounds   1            -40      39                Points:          80
 PW_GRID|   Bounds   2            -40      39                Points:          80
 PW_GRID|   Bounds   3            -40      39                Points:          80
 PW_GRID| Volume element (a.u.^3)  0.3559         Volume (a.u.^3)    182205.0337
 PW_GRID| Grid span                                                    FULLSPACE
 PW_GRID|   Distribution                         Average         Max         Min
 PW_GRID|   G-Vectors                             2370.4        2480        2240
 PW_GRID|   G-Rays                                  29.6          31          28
 PW_GRID|   Real Space Points                     2370.4        2800        1920

 POISSON| Solver                                                         WAVELET
 POISSON| Wavelet| Scaling function                                           40
 POISSON| Periodicity                                                       NONE

 RS_GRID| Information for grid number                                          1
 RS_GRID|   Bounds   1           -202     202                Points:         405
 RS_GRID|   Bounds   2           -202     202                Points:         405
 RS_GRID|   Bounds   3           -202     202                Points:         405
 RS_GRID| Real space distribution over                                  6 groups
 RS_GRID| Real space distribution along direction                              1
 RS_GRID| Border size                                                         31
 RS_GRID| Real space distribution over                                  6 groups
 RS_GRID| Real space distribution along direction                              2
 RS_GRID| Border size                                                         31
 RS_GRID| Real space distribution over                                  6 groups
 RS_GRID| Real space distribution along direction                              3
 RS_GRID| Border size                                                         31
 RS_GRID|   Distribution                         Average         Max         Min
 RS_GRID|   Planes                                 129.5         130         129
 RS_GRID|   Distribution                         Average         Max         Min
 RS_GRID|   Planes                                 129.5         130         129
 RS_GRID|   Distribution                         Average         Max         Min
 RS_GRID|   Planes                                 129.5         130         129

 RS_GRID| Information for grid number                                          2
 RS_GRID|   Bounds   1           -120     119                Points:         240
 RS_GRID|   Bounds   2           -120     119                Points:         240
 RS_GRID|   Bounds   3           -120     119                Points:         240
 RS_GRID| Real space distribution over                                  6 groups
 RS_GRID| Real space distribution along direction                              1
 RS_GRID| Border size                                                         33
 RS_GRID| Real space distribution over                                  6 groups
 RS_GRID| Real space distribution along direction                              2
 RS_GRID| Border size                                                         33
 RS_GRID| Real space distribution over                                  6 groups
 RS_GRID| Real space distribution along direction                              3
 RS_GRID| Border size                                                         33
 RS_GRID|   Distribution                         Average         Max         Min
 RS_GRID|   Planes                                 106.0         106         106
 RS_GRID|   Distribution                         Average         Max         Min
 RS_GRID|   Planes                                 106.0         106         106
 RS_GRID|   Distribution                         Average         Max         Min
 RS_GRID|   Planes                                 106.0         106         106

 RS_GRID| Information for grid number                                          3
 RS_GRID|   Bounds   1            -67      67                Points:         135
 RS_GRID|   Bounds   2            -67      67                Points:         135
 RS_GRID|   Bounds   3            -67      67                Points:         135
 RS_GRID| Real space fully replicated
 RS_GRID| Group size                                                           1

 RS_GRID| Information for grid number                                          4
 RS_GRID|   Bounds   1            -40      39                Points:          80
 RS_GRID|   Bounds   2            -40      39                Points:          80
 RS_GRID|   Bounds   3            -40      39                Points:          80
 RS_GRID| Real space fully replicated
 RS_GRID| Group size                                                           1

  HFX_INFO| Replica ID:                                                        1
  HFX_INFO| FRACTION:                                               0.2500000000
  HFX_INFO| Interaction Potential:                                       COULOMB
  HFX_INFO| EPS_SCHWARZ:                                                 1.0E-10
  HFX_INFO| EPS_SCHWARZ_FORCES                                           1.0E-08
  HFX_INFO| EPS_STORAGE_SCALING:                                         1.0E+00
  HFX_INFO| NBINS:                                                            64
  HFX_INFO| BLOCK_SIZE:                                                        1
  HFX_INFO| Number of periodic shells considered:                           NONE
  HFX_INFO| Number of periodic cells considered:                            NONE

 
 RI-RPA| using GPW style
 

 OVERLAP MATRIX CONDITION NUMBER
 1-Norm Condition Number (Estimate)
   CN : |A|*|A^-1|:  1.506E+001 *  7.793E+002   = 1.173E+004  Log(1-CN):  4.0695
 1-Norm and 2-Norm Condition Numbers using Diagonalization
   CN : |A|*|A^-1|:  1.506E+001 *  7.793E+002   = 1.173E+004  Log(1-CN):  4.0695
   CN : max/min ev:  7.482E+000 /  2.896E-003   = 2.583E+003  Log(2-CN):  3.4122

 Number of electrons:                                                         34
 Number of occupied orbitals:                                                 17
 Number of molecular orbitals:                                                96

 Number of orbital functions:                                                 96
 Number of independent orbital functions:                                     96

 Extrapolation method: initial_guess

 Atomic guess: The first density matrix is obtained in terms of atomic orbitals
               and electronic configurations assigned to each atomic kind

 Guess for atomic kind: N

 Electronic structure
    Total number of core electrons                                          0.00
    Total number of valence electrons                                       7.00
    Total number of electrons                                               7.00
    Multiplicity                                                   not specified
    S      2.00  2.00
    P      3.00


 *******************************************************************************
                  Iteration          Convergence                     Energy [au]
 *******************************************************************************
                          1        0.301551                     -53.973815306340
                          2        0.236385                     -53.983090543973
                          3        0.208022E-03                 -53.998986912883
                          4        0.118436E-04                 -53.998986915072
                          5        0.107309E-07                 -53.998986915114

 Energy components [Hartree]           Total Energy ::          -53.998986915114
                                        Band Energy ::          -29.999077661618
                                     Kinetic Energy ::           54.085149820813
                                   Potential Energy ::         -108.084136735928
                                      Virial (-V/T) ::            1.998406902708
                                        Core Energy ::          -73.782684889681
                                          XC Energy ::           -6.177276544954
                                     Coulomb Energy ::           25.960974519520

 Orbital energies  State     L     Occupation   Energy[a.u.]          Energy[eV]

                       1     0          2.000     -13.985047         -380.552488
                       2     0          2.000      -0.654080          -17.798415

                       1     1          3.000      -0.240275           -6.538204


 Total Electron Density at R=0:                                       197.077767

 Guess for atomic kind: H

 Electronic structure
    Total number of core electrons                                          0.00
    Total number of valence electrons                                       1.00
    Total number of electrons                                               1.00
    Multiplicity                                                   not specified
    S      1.00


 *******************************************************************************
                  Iteration          Convergence                     Energy [au]
 *******************************************************************************
                          1        0.645465E-02                  -0.443631123483
                          2        0.932618E-03                  -0.443685732765
                          3        0.519913E-06                  -0.443686896372

 Energy components [Hartree]           Total Energy ::           -0.443686896372
                                        Band Energy ::           -0.225436097088
                                     Kinetic Energy ::            0.430574518289
                                   Potential Energy ::           -0.874261414661
                                      Virial (-V/T) ::            2.030453214314
                                        Core Energy ::           -0.496536053916
                                          XC Energy ::           -0.237394005036
                                     Coulomb Energy ::            0.290243162580

 Orbital energies  State     L     Occupation   Energy[a.u.]          Energy[eV]

                       1     0          1.000      -0.225436           -6.134428


 Total Electron Density at R=0:                                         0.220668

 Guess for atomic kind: C

 Electronic structure
    Total number of core electrons                                          0.00
    Total number of valence electrons                                       6.00
    Total number of electrons                                               6.00
    Multiplicity                                                   not specified
    S      2.00  2.00
    P      2.00


 *******************************************************************************
                  Iteration          Convergence                     Energy [au]
 *******************************************************************************
                          1        0.119218                     -37.400998717351
                          2        0.790512E-01                 -37.406821273133
                          3        0.734628E-04                 -37.411395536056
                          4        0.691595E-05                 -37.411395536800
                          5        0.886149E-08                 -37.411395536837

 Energy components [Hartree]           Total Energy ::          -37.411395536837
                                        Band Energy ::          -21.198904416633
                                     Kinetic Energy ::           37.516349324744
                                   Potential Energy ::          -74.927744861581
                                      Virial (-V/T) ::            1.997202452003
                                        Core Energy ::          -50.374040099829
                                          XC Energy ::           -4.756770713918
                                     Coulomb Energy ::           17.719415276911

 Orbital energies  State     L     Occupation   Energy[a.u.]          Energy[eV]

                       1     0          2.000      -9.925807         -270.094932
                       2     0          2.000      -0.489058          -13.307940

                       1     1          2.000      -0.184588           -5.022890


 Total Electron Density at R=0:                                       121.943173
 Re-scaling the density matrix to get the right number of electrons
                  # Electrons              Trace(P)               Scaling factor
                           34                34.000                        1.000


 SCF WAVEFUNCTION OPTIMIZATION

  Step     Update method      Time    Convergence         Total energy    Change
  ------------------------------------------------------------------------------

  HFX_MEM_INFO| Est. max. program size before HFX [MiB]:                     558
  HFX_MEM_INFO| Number of cart. primitive ERI's calculated:             81302070
  HFX_MEM_INFO| Number of sph. ERI's calculated:                        13221785
  HFX_MEM_INFO| Number of sph. ERI's stored in-core:                    13221785
  HFX_MEM_INFO| Number of sph. ERI's stored on disk:                           0
  HFX_MEM_INFO| Number of sph. ERI's calculated on the fly:                    0
  HFX_MEM_INFO| Total memory consumption ERI's RAM [MiB]:                     16
  HFX_MEM_INFO| Whereof max-vals [MiB]:                                        7
  HFX_MEM_INFO| Total compression factor ERI's RAM:                         6.59
  HFX_MEM_INFO| Total memory consumption ERI's disk [MiB]:                     0
  HFX_MEM_INFO| Total compression factor ERI's disk:                        0.00
  HFX_MEM_INFO| Size of density/Fock matrix [MiB]:                             0
  HFX_MEM_INFO| Size of buffers [MiB]:                                         0
  HFX_MEM_INFO| Est. max. program size after HFX  [MiB]:                    1048

     1 NoMix/Diag. 0.10E+00    3.0     0.78047142      -191.0609772237 -1.91E+02
     2 Broy./Diag. 0.10E+00    0.9     0.10108882      -186.2860285094  4.77E+00
     3 Broy./Diag. 0.10E+00    1.0     0.23888182      -184.3028841294  1.98E+00
     4 Broy./Diag. 0.10E+00    0.9     0.35059416      -185.3882735007 -1.09E+00
     5 Broy./Diag. 0.10E+00    0.9     0.08134390      -187.8220178707 -2.43E+00
     6 Broy./Diag. 0.10E+00    0.9     0.03163133      -188.2136608965 -3.92E-01
     7 Broy./Diag. 0.10E+00    0.9     0.08986720      -188.7458168772 -5.32E-01
     8 Broy./Diag. 0.10E+00    0.9     0.02952074      -189.4714680368 -7.26E-01
     9 Broy./Diag. 0.10E+00    0.9     0.00783416      -189.7051028710 -2.34E-01
    10 Broy./Diag. 0.10E+00    0.9     0.02684073      -189.8678148713 -1.63E-01
    11 Broy./Diag. 0.10E+00    0.9     0.01173355      -190.1026514822 -2.35E-01
    12 Broy./Diag. 0.10E+00    0.9     0.00413538      -190.1731979960 -7.05E-02
    13 Broy./Diag. 0.10E+00    0.9     0.01360083      -190.2086188786 -3.54E-02
    14 Broy./Diag. 0.10E+00    0.9     0.00259263      -190.2963748795 -8.78E-02
    15 Broy./Diag. 0.10E+00    0.9     0.00819309      -190.3140669962 -1.77E-02
    16 Broy./Diag. 0.10E+00    0.9     0.00577166      -190.2933311711  2.07E-02
    17 Broy./Diag. 0.10E+00    0.9     0.00144274      -190.2726842849  2.06E-02
    18 Broy./Diag. 0.10E+00    0.9     0.00184517      -190.2741081104 -1.42E-03
    19 Broy./Diag. 0.10E+00    0.9     0.00318349      -190.2921161172 -1.80E-02
    20 Broy./Diag. 0.10E+00    0.9     0.00058325      -190.3056840537 -1.36E-02
    21 Broy./Diag. 0.10E+00    0.9     0.00163350      -190.3089322710 -3.25E-03
    22 Broy./Diag. 0.10E+00    0.9     0.00051379      -190.3100281202 -1.10E-03
    23 Broy./Diag. 0.10E+00    0.9     0.00105004      -190.3038028394  6.23E-03
    24 Broy./Diag. 0.10E+00    0.9     0.00059440      -190.2973374142  6.47E-03
    25 Broy./Diag. 0.10E+00    0.9     0.00025922      -190.2949047284  2.43E-03
    26 Broy./Diag. 0.10E+00    0.9     0.00009010      -190.2941479989  7.57E-04
    27 Broy./Diag. 0.10E+00    1.0     0.00025907      -190.2948133842 -6.65E-04
    28 Broy./Diag. 0.10E+00    0.9     0.00034576      -190.2952072530 -3.94E-04
    29 Broy./Diag. 0.10E+00    0.9     0.00031820      -190.2969835865 -1.78E-03
    30 Broy./Diag. 0.10E+00    0.9     0.00013772      -190.2992126144 -2.23E-03
    31 Broy./Diag. 0.10E+00    0.9     0.00016162      -190.2991696056  4.30E-05
    32 Broy./Diag. 0.10E+00    0.9     0.00013444      -190.2989168638  2.53E-04
    33 Broy./Diag. 0.10E+00    0.9     0.00015644      -190.2990287358 -1.12E-04
    34 Broy./Diag. 0.10E+00    0.9     0.00016383      -190.2984191133  6.10E-04
    35 Broy./Diag. 0.10E+00    1.0     0.00009623      -190.2989786941 -5.60E-04
    36 Broy./Diag. 0.10E+00    0.9     0.00005873      -190.2997960961 -8.17E-04
    37 Broy./Diag. 0.10E+00    0.9     0.00001858      -190.2998622558 -6.62E-05
    38 Broy./Diag. 0.10E+00    0.9     0.00005164      -190.3002417151 -3.79E-04
    39 Broy./Diag. 0.10E+00    1.0     0.00009218      -190.3004269047 -1.85E-04
    40 Broy./Diag. 0.10E+00    0.9     0.00003275      -190.3004743158 -4.74E-05
    41 Broy./Diag. 0.10E+00    0.9     0.00001080      -190.3005254531 -5.11E-05
    42 Broy./Diag. 0.10E+00    0.9     0.00002386      -190.3004776925  4.78E-05
    43 Broy./Diag. 0.10E+00    0.9     0.00001893      -190.3003511719  1.27E-04
    44 Broy./Diag. 0.10E+00    0.9     0.00000795      -190.3002530777  9.81E-05
    45 Broy./Diag. 0.10E+00    0.9     0.00000448      -190.3002143685  3.87E-05
    46 Broy./Diag. 0.10E+00    0.9     0.00000767      -190.3001551963  5.92E-05
    47 Broy./Diag. 0.10E+00    0.9     0.00000609      -190.3000545326  1.01E-04
    48 Broy./Diag. 0.10E+00    0.9     0.00000394      -190.3000288557  2.57E-05
    49 Broy./Diag. 0.10E+00    0.9     0.00000658      -190.3000770441 -4.82E-05
    50 Broy./Diag. 0.10E+00    0.9     0.00000481      -190.3000736756  3.37E-06
    51 Broy./Diag. 0.10E+00    0.9     0.00000189      -190.3000501446  2.35E-05
    52 Broy./Diag. 0.10E+00    0.9     0.00000204      -190.3000386750  1.15E-05
    53 Broy./Diag. 0.10E+00    0.9     0.00000137      -190.3000295554  9.12E-06
    54 Broy./Diag. 0.10E+00    0.9     0.00000142      -190.3000375961 -8.04E-06
    55 Broy./Diag. 0.10E+00    1.0     0.00000122      -190.3000358882  1.71E-06
    56 Broy./Diag. 0.10E+00    0.9     0.00000203      -190.3000318614  4.03E-06
    57 Broy./Diag. 0.10E+00    1.0     0.00000073      -190.3000418269 -9.97E-06

  *** SCF run converged in    57 steps ***


  Electronic density on regular grids:        -26.4661564375        7.5338435625
  Core density on regular grids:               34.0000000000       -0.0000000000
  Hard and soft densities (Lebedev):          -61.3573112843      -53.8234675622
  Total Rho_soft + Rho1_hard - Rho1_soft      -34.0000001596
  Total charge density (r-space):              -0.0000001596
  Total Rho_soft + Rho0_soft (g-space):        -0.0000002159

  Overlap energy of the core charge distribution:               0.00000319502333
  Self energy of the core charge distribution:               -165.10843839542676
  Core Hamiltonian energy:                                    -25.27661847400625
[...]
 cp2k_distribution_to_z_slices       58  9.0    0.267    0.292    0.581    0.719
 parser_read_line_low               222  5.0    0.066    0.308    0.691    0.715
 gaVxcgb_GC                         114  9.0    0.008    0.691    0.008    0.691
 broadcast_input_information        222  6.0    0.156    0.174    0.625    0.680
 calc_pair_dist_radii                 1 10.0    0.199    0.205    0.632    0.659
 fft_wrap_pw1pw2_90                 116 10.5    0.017    0.025    0.556    0.640
 transfer_pw2rs_90                   58 12.0    0.124    0.143    0.546    0.628
 pw_poisson_rebuild                  58  9.0    0.000    0.000    0.604    0.626
 ps_wavelet_create                    1 10.0    0.000    0.000    0.604    0.626
 RS_z_slice_distribution              1 11.0    0.498    0.545    0.604    0.626
 pw_derive                          516 11.3    0.567    0.613    0.567    0.613
 rs_grid_zero                       292 11.1    0.576    0.594    0.576    0.594
 mp_isendrecv_dv                  49880 12.0    0.311    0.588    0.311    0.588
 transfer_rs2pw_90                   58  9.0    0.129    0.145    0.517    0.586
 mp_sum_dm                         2150  7.6    0.518    0.583    0.518    0.583
 compute_vec_Sigma_x_minus_vxc_       1  4.0    0.000    0.000    0.502    0.502
 start_bse_calculation                1  7.0    0.000    0.000    0.500    0.500
 pw_copy                            865 10.6    0.435    0.475    0.435    0.475
 rs_gather_matrices                  58 10.0    0.001    0.002    0.410    0.442
 qs_energies_init_hamiltonians        1  3.0    0.000    0.000    0.424    0.424
 grid_integrate_task_list            58 10.0    0.022    0.416    0.022    0.416
 build_core_hamiltonian_matrix        1  4.0    0.000    0.000    0.412    0.413
 overlap_condnum                      1  5.0    0.000    0.000    0.410    0.411
 mp_sum_i                            21  9.7    0.221    0.398    0.221    0.398
 restraint_control                    1  2.0    0.000    0.000    0.220    0.397
 mp2_main_alloc_hfx                   1  4.0    0.178    0.395    0.178    0.395
 transfer_pw2rs_10                   58 12.0    0.139    0.172    0.361    0.388
 transfer_rs2pw_10                   58  9.0    0.141    0.152    0.372    0.384
 pw_poisson_set                      59  8.9    0.001    0.002    0.344    0.352
 arnoldi_conjugate_gradient           7  6.0    0.008    0.009    0.318    0.318
 mp_bcast_am_src                    222  7.0    0.229    0.262    0.256    0.311
 pw_copy_to_array                   577 11.8    0.244    0.311    0.244    0.311
 rpa_num_int_RPA_matrix_operati     100  7.0    0.001    0.002    0.300    0.300
 calculate_dm_sparse                 57  6.0    0.000    0.000    0.296    0.299
 cp_dbcsr_plus_fm_fm_t               57  7.0    0.001    0.001    0.295    0.298
 mp2_ri_gpw_compute_in                1  5.0    0.000    0.000    0.292    0.293
 mp_bcast_i_src                     888  7.0    0.205    0.284    0.205    0.284
 mp2_ri_gpw_compute_in_loop           1  6.0    0.000    0.000    0.283    0.283
 init_scf_run                         1  3.0    0.000    0.000    0.275    0.275
 contract_B_L                         4  7.0    0.001    0.002    0.266    0.273
 diagonalize_C                        1  8.0    0.000    0.000    0.256    0.256
 pw_integral_ab_c1d_c1d_gs           58  9.0    0.188    0.191    0.233    0.255
 mp_max_i                           574  2.7    0.098    0.255    0.098    0.255
 scf_env_initial_rho_setup            1  4.0    0.000    0.000    0.253    0.253
 dbcsr_complete_redistribute        194  8.4    0.009    0.011    0.249    0.252
 pw_axpy                            575  9.3    0.213    0.238    0.213    0.238
 pw_copy_from_array                 632 12.1    0.189    0.237    0.189    0.237
 fft_wrap_pw1pw2_30                 116 10.5    0.003    0.004    0.227    0.236
 cp_fm_power                          2  7.5    0.002    0.002    0.231    0.231
 mp_alltoall_z11v                   232 13.5    0.219    0.228    0.219    0.228
 Vh_1c_gg_integrals                  58  8.0    0.004    0.038    0.093    0.228
 mp_isend_dm3                      2100 11.5    0.112    0.222    0.112    0.222
 create_hermitian_form_of_ABBA        1  8.0    0.000    0.000    0.213    0.214
 dbt_total                            8  8.0    0.000    0.000    0.212    0.213
 qs_init_subsys                       1  2.0    0.003    0.004    0.209    0.210
 mp_sum_dv                        14577 11.9    0.166    0.209    0.166    0.209
 mp_irecv_dm3                      2100 11.5    0.119    0.209    0.119    0.209
 dbt_contract                         4  9.0    0.001    0.001    0.202    0.205
 qs_env_setup                         1  3.0    0.000    0.000    0.202    0.202
 qs_env_rebuild_pw_env                2  3.5    0.000    0.000    0.201    0.201
 pw_env_rebuild                       1  5.0    0.001    0.001    0.200    0.201
 dbcsr_sym_matrix_vector_mult      1132  7.0    0.018    0.020    0.162    0.194
 copy_dbcsr_to_fm                    76  6.4    0.002    0.002    0.191    0.193
 pw_grid_setup                        4  6.0    0.000    0.000    0.187    0.187
 pw_grid_setup_internal               4  7.0    0.003    0.005    0.187    0.187
 calc_mat_Q                         100  8.0    0.000    0.000    0.175    0.185
 contract_S_to_Q                    100  9.0    0.000    0.001    0.174    0.183
 mp_isend_dv                      18545 11.8    0.129    0.180    0.129    0.180
 calculate_rho_atom                 174  9.0    0.098    0.176    0.098    0.176
 dbcsr_multiply_generic              78  8.1    0.004    0.004    0.163    0.168
 dbt_tas_multiply                     8 11.5    0.000    0.000    0.167    0.167
 dbt_tas_total                        8 12.5    0.002    0.005    0.166    0.166
 copy_fm_to_dbcsr                   118  8.1    0.000    0.001    0.151    0.154
 yz_to_xz                           116 14.0    0.010    0.012    0.138    0.146
 cp_fm_cholesky_invert              101  8.0    0.137    0.144    0.137    0.144
 dbcsr_desymmetrize_deep             78  7.3    0.002    0.002    0.141    0.142
 pw_zero                            344 10.3    0.112    0.126    0.112    0.126
 mp_alltoall_i11v                   660  9.3    0.124    0.124    0.124    0.124
 fft_wrap_pw1pw2_10                 116 10.5    0.001    0.001    0.116    0.117
 integrate_four_center_getP          58 10.0    0.018    0.020    0.111    0.113
 integrate_four_center_main          58 10.0    0.008    0.037    0.043    0.112
 compute_Erpa_by_freq_int           100  8.0    0.001    0.001    0.111    0.111
 cp_fm_cholesky_decompose           102  9.0    0.108    0.109    0.108    0.109
 integrate_four_center_dist_KS       58 10.0    0.019    0.020    0.102    0.103
 mp_rank_compare                   1209 12.9    0.099    0.102    0.099    0.102
 dbcsr_add_d                       1737  7.1    0.002    0.002    0.015    0.102
 xz_to_yz                           116 11.0    0.007    0.008    0.099    0.101
 dbcsr_add_anytype                 1737  8.1    0.002    0.013    0.014    0.100
 hybrid_alltoall_any                234 10.8    0.002    0.003    0.096    0.097
 pw_grid_sort                         4  8.0    0.043    0.057    0.067    0.096
 mp_sum_l                           826  5.7    0.081    0.095    0.081    0.095
 cp_fm_to_fm_submat_general         112 10.1    0.082    0.095    0.082    0.095
 integrate_four_center_bin         5208 11.0    0.035    0.095    0.035    0.095
 mp_cart_create                     397 10.3    0.066    0.085    0.067    0.085
 multiply_cannon                     78  9.1    0.009    0.009    0.075    0.079
 integrate_four_center_load          58 10.0    0.000    0.001    0.064    0.078
 hfx_load_balance                     1 11.0    0.000    0.000    0.064    0.078
 dbcsr_col_vec_to_rep_row          1132  8.0    0.008    0.009    0.050    0.075
 dbcsr_finalize                    2973 10.8    0.007    0.026    0.022    0.075
 cp_fm_redistribute_start            63  8.0    0.058    0.060    0.072    0.074
 dbt_tas_estimate_result_nze          4 12.0    0.001    0.004    0.069    0.071
 make_m2s                           156  9.1    0.004    0.004    0.067    0.070
 vxc_of_r_new                       228  9.0    0.000    0.010    0.002    0.066
 dbcsr_rep_row_to_rep_col_vec      1132  8.0    0.005    0.006    0.027    0.065
 scale_and_distribute               116 10.0    0.057    0.061    0.057    0.061
 mp_bcast_iv                        277  6.8    0.028    0.061    0.028    0.061
 calculate_rho_atom_coeff            58  6.0    0.006    0.012    0.061    0.061
 postprocess_bse                      1  9.0    0.000    0.000    0.060    0.060
 multiply_cannon_loop                78 10.1    0.014    0.015    0.056    0.059
 dbt_tas_dbm                          8 13.5    0.000    0.000    0.055    0.058
 hfx_load_balance_range               1 12.0    0.000    0.000    0.044    0.058
 dbm_multiply                         8 15.5    0.049    0.052    0.049    0.052
 pw_scale                           229  9.5    0.039    0.051    0.039    0.051
 dbt_pgrid_create_expert             84 10.8    0.000    0.000    0.041    0.049
 mp_bcast_dv                       1195  9.0    0.021    0.048    0.021    0.048
 mixing_init                          1  5.0    0.040    0.043    0.045    0.045
 scf_post_calculation_gpw             1  3.0    0.000    0.000    0.043    0.045
 write_available_results              1  4.0    0.000    0.000    0.043    0.045
 write_mo_free_results                1  5.0    0.003    0.006    0.043    0.045
 pw_grid_remap                        4  8.0    0.003    0.003    0.041    0.044
 mp_sum_im3                           4  9.0    0.038    0.041    0.038    0.041
 mp_sum_im                        10880 13.0    0.034    0.040    0.034    0.040
 mp_bcast_iv_src                    222  7.0    0.008    0.040    0.008    0.040
 mp_maxloc_dv                      1529  1.0    0.036    0.040    0.036    0.040
 sort_shells                          4  9.0    0.024    0.039    0.024    0.039
 dbt_distribution_new_expert         76 10.1    0.001    0.001    0.038    0.038
 dbcsr_merge_all                   2295 11.6    0.009    0.029    0.011    0.035
 dbcsr_iterator_start             15280  8.9    0.019    0.029    0.023    0.035
 dbcsr_copy                        5066  7.7    0.018    0.020    0.029    0.035
 make_images                        156 10.1    0.008    0.009    0.033    0.035
 dbt_tas_distribution_new           100 11.9    0.020    0.021    0.033    0.034
 mp_comm_split_direct                48 14.5    0.023    0.034    0.023    0.034
 pw_grid_distribute                   4  8.0    0.010    0.012    0.020    0.034
 rs_scatter_matrices                 58  7.0    0.001    0.001    0.031    0.031
 dbt_remap                            8 10.0    0.002    0.002    0.030    0.030
 mp_alltoall_i22                    272  9.1    0.026    0.030    0.026    0.030
 update_ks_atom                      58  8.0    0.005    0.008    0.026    0.029
 get_multipoles_mo                    1 10.0    0.000    0.000    0.029    0.029
 dbt_tas_mm_1N                        4 14.5    0.000    0.000    0.026    0.029
 cp_fm_symm                          58  7.0    0.025    0.027    0.025    0.027
 mp2_main_free_hfx                    1  4.0    0.010    0.027    0.010    0.027
 print_transition_amplitudes          1 10.0    0.000    0.000    0.026    0.026
 print_transition_amplitudes_co      50 11.0    0.000    0.001    0.026    0.026
 filter_eigvec_contrib               50 12.0    0.016    0.016    0.026    0.026
 cube_transpose_2                   116 11.0    0.002    0.003    0.023    0.026
 dbt_tas_mm_2                         4 14.5    0.000    0.000    0.024    0.024
 dbcsr_create_new                  7029  9.1    0.016    0.018    0.021    0.024
 dbt_tas_replicate                    8 13.5    0.009    0.013    0.022    0.023
 dbt_copy                            12 10.2    0.000    0.000    0.020    0.023
 cube_transpose_1                   116 14.0    0.002    0.002    0.021    0.022
 mp_bcast_dm                       1392  9.0    0.021    0.022    0.021    0.022
 convert_to_new_pgrid                24 13.5    0.012    0.015    0.019    0.022
 dbcsr_iterator_stop              15280  8.9    0.014    0.018    0.017    0.022
 dbcsr_crop_matrix                  285 10.0    0.002    0.002    0.020    0.022
 pw_grid_assign                       4  8.0    0.014    0.021    0.020    0.021
 cp_dbcsr_sm_fm_multiply              3 11.0    0.000    0.000    0.021    0.021
 mp2_eri_3c_integrate                 1  7.0    0.001    0.001    0.008    0.021
 Q_trace_and_add_unit_matrix        100  8.0    0.001    0.001    0.013    0.020
 hirshfeld_integration                1  6.0    0.001    0.003    0.020    0.020
 integrate_set_3c                   852  8.0    0.006    0.017    0.008    0.020
 mp_irecv_dv                      18239 11.8    0.015    0.020    0.015    0.020
 dbt_split_blocks_generic            20  8.8    0.002    0.002    0.019    0.019
 dbt_create_new                      40  9.5    0.001    0.001    0.018    0.019
 calculate_hirshfeld_normalizat       1  6.0    0.001    0.003    0.018    0.019
 mp_cart_rank                     61908  9.9    0.016    0.018    0.016    0.018
 dbt_tas_create_split                44 13.2    0.000    0.000    0.018    0.018
 dbt_tas_create_split_rows_or_c      44 14.2    0.000    0.000    0.018    0.018
 mp_bcast_av                        765  1.0    0.006    0.010    0.014    0.018
 create_fast_row_vec_access        2264  8.0    0.009    0.011    0.014    0.017
 dbt_reshape                          8 11.8    0.007    0.010    0.014    0.017
 dbt_tas_reshape                     10 13.6    0.000    0.000    0.014    0.017
 dbcsr_copy_submatrix               285 11.0    0.002    0.003    0.015    0.017
 create_fast_col_vec_access        2264  8.0    0.009    0.010    0.014    0.016
 mp_alltoall_i                       41 13.9    0.014    0.016    0.014    0.016
 cp_fm_uplo_to_full                 104  8.0    0.006    0.015    0.006    0.015
 mp_cart_sub                        158  8.4    0.014    0.015    0.014    0.015
 xc_pw_smooth                        57 10.0    0.000    0.000    0.013    0.014
 make_images_sizes                  156 11.1    0.000    0.000    0.013    0.014
 mp_alltoall_i44                    156 12.1    0.013    0.014    0.013    0.014
 hfx_create                           1  2.0    0.013    0.014    0.013    0.014
 mp_sum_iv                          265  9.6    0.011    0.013    0.011    0.013
 dbcsr_work_create                 2715 10.7    0.003    0.009    0.004    0.013
 write_mo_set_to_restart             57  5.0    0.001    0.010    0.011    0.013
 multiply_cannon_metrocomm4        2108 11.1    0.006    0.006    0.012    0.012
 multiply_cannon_metrocomm3        2248 11.1    0.004    0.004    0.009    0.012
 hfx_load_balance_redist              1 12.0    0.009    0.010    0.011    0.012
 dbcsr_work_destroy_all            2715 11.6    0.003    0.009    0.004    0.012
 multiply_cannon_metrocomm2        2046 11.1    0.006    0.006    0.011    0.012
 calculate_rho0_atom                174  9.0    0.011    0.012    0.011    0.012
 reshape_mm_compatible                8 13.5    0.000    0.000    0.011    0.012
 reshape_mm_small                     8 13.5    0.002    0.002    0.011    0.011
 write_mo_set_low                     3  6.0    0.000    0.000    0.011    0.011
 cp_fm_write_unformatted              3  7.0    0.011    0.011    0.011    0.011
 dbm_redistribute                    18 13.7    0.010    0.010    0.010    0.010
 mp_bcast_i                         646  2.9    0.006    0.010    0.006    0.010
 create_B                             1  8.0    0.000    0.000    0.010    0.010
 dbcsr_data_release               34947 10.3    0.007    0.010    0.007    0.010
 qs_env_update_s_mstruct              1  4.0    0.000    0.000    0.009    0.010
 dbcsr_scale_anytype               1738  9.1    0.003    0.004    0.009    0.010
 qs_create_task_list                  1  5.0    0.000    0.000    0.009    0.010
 generate_qs_task_list                1  6.0    0.000    0.001    0.009    0.010
 mp_comm_dup                         44 14.5    0.009    0.010    0.010    0.010
 create_A                             1  8.0    0.001    0.001    0.010    0.010
 dbt_tas_communicate_buffer          18 15.6    0.001    0.002    0.006    0.009
 mp_comm_split                       63  9.0    0.008    0.009    0.009    0.009
 distribute_tasks                     1  7.0    0.000    0.000    0.009    0.009
 dbcsr_sym_matrix_vector_mult_l    1132  8.0    0.004    0.005    0.008    0.009
 mp_min_d                             1  6.0    0.004    0.008    0.004    0.008
 compute_max_radius                   1  6.0    0.008    0.008    0.008    0.008
 cp_dbcsr_sm_fm_multiply_core         3 12.0    0.000    0.000    0.006    0.008
 dbm_reserve_blocks                  72 14.2    0.008    0.008    0.008    0.008
 mult_B_with_W                        1  8.0    0.000    0.000    0.008    0.008
 dbcsr_destroy                     4711  8.7    0.005    0.006    0.007    0.008
 get_2c_integrals                     1  6.0    0.000    0.000    0.007    0.008
 dbcsr_data_new                   17807 10.8    0.005    0.008    0.005    0.008
 self_consistency_check              57  5.0    0.000    0.000    0.006    0.008
 dbcsr_make_images_dense            116  9.9    0.002    0.002    0.006    0.008
 change_split                        12 14.0    0.000    0.000    0.008    0.008
 cp_sm_mix                           57  6.0    0.000    0.000    0.006    0.008
 pw_pool_create_pw                 1973  9.6    0.004    0.005    0.006    0.008
 mp_waitall_2                        50 15.6    0.005    0.008    0.005    0.008
 multiply_cannon_metrocomm1        2248 11.1    0.003    0.003    0.006    0.008
 mp_max_d                            59  6.9    0.006    0.008    0.006    0.008
 cp_fm_syrk                           3  7.0    0.006    0.007    0.006    0.007
 multiply_cannon_multrec           2248 11.1    0.004    0.007    0.004    0.007
 make_images_data                   156 11.1    0.002    0.002    0.004    0.007
 rs_grid_create                      64  8.7    0.000    0.001    0.002    0.007
 dbcsr_dot                          115  8.0    0.001    0.001    0.005    0.007
 dbt_tas_merge                        4 13.5    0.002    0.003    0.006    0.007
 dbcsr_iterator_seek              15280  9.9    0.003    0.007    0.003    0.007
 dbcsr_set                         4922  8.5    0.004    0.005    0.006    0.007
 dbt_tas_reshape_communicate_bu      10 14.6    0.000    0.000    0.004    0.007
 offload_create_buffer               66  9.6    0.002    0.007    0.002    0.007
 mp_allgather_i34                    78 10.1    0.006    0.007    0.006    0.007
 create_integ_mat                     4  6.0    0.001    0.001    0.006    0.006
 load_balance_distributed             2  8.0    0.000    0.000    0.006    0.006
 -------------------------------------------------------------------------------

 The number of warnings for this run is : 1
 
 -------------------------------------------------------------------------------
  **** **** ******  **  PROGRAM ENDED AT                 2025-03-30 16:17:41.207
 ***** ** ***  *** **   PROGRAM RAN ON                              i03r01c02s07
 **    ****   ******    PROGRAM RAN BY                                   di38fab
 ***** **    ** ** **   PROGRAM PROCESS ID                               1343317
  **** **  *******  **  PROGRAM STOPPED IN /hppfs/scratch/04/di38fab/07_MOL_non_
                                           aug/05_MOL_non_aug/05_MOL/aUKBqsEOTmq
                                           69kFe5R_nOg/5k_set_final_qzvp/ETDIAM1
                                           1/cc-pVDZ/GW+BSE
