 DBCSR| CPU Multiplication driver                                           XSMM (U)
 DBCSR| Multrec recursion limit                                              512 (U)
 DBCSR| Multiplication stack size                                           1000 (D)
 DBCSR| Maximum elements for images                                    UNLIMITED (U)
 DBCSR| Multiplicative factor virtual images                                   1 (U)
 DBCSR| Use multiplication densification                                       T (D)
 DBCSR| Multiplication size stacks                                             3 (U)
 DBCSR| Use memory pool for CPU allocation                                     F (U)
 DBCSR| Number of 3D layers                                               SINGLE (U)
 DBCSR| Use MPI memory allocation                                              F (U)
 DBCSR| Use RMA algorithm                                                      F (U)
 DBCSR| Use Communication thread                                               T (U)
 DBCSR| Communication thread load                                             60 (D)
 DBCSR| MPI: My process id                                                     0
 DBCSR| MPI: Number of processes                                              80
 DBCSR| OMP: Current number of threads                                         8
 DBCSR| OMP: Max number of threads                                             8
 DBCSR| Split modifier for TAS multiplication algorithm                  1.0E+00 (U)


  **** **** ******  **  PROGRAM STARTED AT               2025-05-29 21:02:22.404
 ***** ** ***  *** **   PROGRAM STARTED ON                              n2cn0191
 **    ****   ******    PROGRAM STARTED BY                              metdyn02
 ***** **    ** ** **   PROGRAM PROCESS ID                                128298
  **** **  *******  **  PROGRAM STARTED IN /scratch/hpc-prf-metdyn/metdyn02_Remi
                                           /10_MOL/05_MOL_low_scal/05_MOL/aUKBqs
                                           EOTmq69kFe5R_nOg/5k_set_final_qzvp/HO
                                           QHUQ/SZV/1e-2/5.0

 CP2K| version string:                 CP2K version 2025.1 (Development Version)
 CP2K| source code revision number:                                  git:32ddf85
 CP2K| cp2kflags: omp libint fftw3 libxc libgrpp elpa parallel scalapack mpi_f08
 CP2K|             cosma xsmm plumed2 spglib libvori libbqb libvdwxc hdf5
 CP2K| is freely available from                            https://www.cp2k.org/
 CP2K| Program compiled at                         Mon May 19 11:32:37 CEST 2025
 CP2K| Program compiled on                                              n2login1
 CP2K| Program compiled for                                                local
 CP2K| Data directory path    /opt/software/pc2/EB-SW/software/CP2K/2024.1-foss-
 CP2K| Input file name                                                    GW.inp

 GLOBAL| Force Environment number                                              1
 GLOBAL| Basis set file name            /scratch/hpc-prf-metdyn/metdyn02_Remi/BA
 GLOBAL| Potential file name            /pc2/groups/hpc-prf-metdyn/metdyn02_Remi
 GLOBAL| MM Potential file name                                     MM_POTENTIAL
 GLOBAL| Coordinate file name                                      __STD_INPUT__
 GLOBAL| Method name                                                        CP2K
 GLOBAL| Project name                                                       MoS2
 GLOBAL| Run type                                                         ENERGY
 GLOBAL| FFT library                                                       FFTW3
 GLOBAL| Diagonalization library                                            ELPA
 GLOBAL| Cholesky decomposition library                                ScaLAPACK
 GLOBAL| DGEMM library                                                      BLAS
 GLOBAL| Minimum number of eigenvectors for ELPA usage                        16
 GLOBAL| Orthonormality check for eigenvectors                          DISABLED
 GLOBAL| Matrix multiplication library                                     COSMA
 GLOBAL| All-to-all communication in single precision                          F
 GLOBAL| FFTs using library dependent lengths                                  F
 GLOBAL| Grid backend                                                       AUTO
 GLOBAL| Global print level                                               MEDIUM
 GLOBAL| MPI I/O enabled                                                       T
 GLOBAL| Total number of message passing processes                            80
 GLOBAL| Number of threads for this process                                    8
 GLOBAL| This output is from process                                           0
 GLOBAL| OpenMP stack size per thread (OMP_STACKSIZE)                    default
 GLOBAL| CPU model name                          AMD EPYC 7763 64-Core Processor
 GLOBAL| CPUID                                                              1002

 MEMORY| system memory details [Kb]
 MEMORY|                        rank 0           min           max       average
 MEMORY| MemTotal            263897596     263897560     263899988     263897710
 MEMORY| MemFree             253144800     242019316     253341848     248372061
 MEMORY| Buffers                120276         16504        132164         69558
 MEMORY| Cached                6464108       6188824      16753040      10615725
 MEMORY| Slab                  1243952       1236144       2023320       1711150
 MEMORY| SReclaimable           244844        244844        647656        389754
 MEMORY| MemLikelyFree       259974028     259204748     260013648     259447098


 *** Fundamental physical constants (SI units) ***

 *** Literature: B. J. Mohr and B. N. Taylor,
 ***             CODATA recommended values of the fundamental physical
 ***             constants: 2006, Web Version 5.1
 ***             http://physics.nist.gov/constants

 Speed of light in vacuum [m/s]                             2.99792458000000E+08
 Magnetic constant or permeability of vacuum [N/A**2]       1.25663706143592E-06
 Electric constant or permittivity of vacuum [F/m]          8.85418781762039E-12
 Planck constant (h) [J*s]                                  6.62606896000000E-34
 Planck constant (h-bar) [J*s]                              1.05457162825177E-34
 Elementary charge [C]                                      1.60217648700000E-19
 Electron mass [kg]                                         9.10938215000000E-31
 Electron g factor [ ]                                     -2.00231930436220E+00
 Proton mass [kg]                                           1.67262163700000E-27
 Fine-structure constant                                    7.29735253760000E-03
 Rydberg constant [1/m]                                     1.09737315685270E+07
 Avogadro constant [1/mol]                                  6.02214179000000E+23
 Boltzmann constant [J/K]                                   1.38065040000000E-23
 Atomic mass unit [kg]                                      1.66053878200000E-27
 Bohr radius [m]                                            5.29177208590000E-11

 *** Conversion factors ***

 [u] -> [a.u.]                                              1.82288848426455E+03
 [Angstrom] -> [Bohr] = [a.u.]                              1.88972613288564E+00
 [a.u.] = [Bohr] -> [Angstrom]                              5.29177208590000E-01
 [a.u.] -> [s]                                              2.41888432650478E-17
 [a.u.] -> [fs]                                             2.41888432650478E-02
 [a.u.] -> [J]                                              4.35974393937059E-18
 [a.u.] -> [N]                                              8.23872205491840E-08
 [a.u.] -> [K]                                              3.15774647902944E+05
 [a.u.] -> [kJ/mol]                                         2.62549961709828E+03
 [a.u.] -> [kcal/mol]                                       6.27509468713739E+02
 [a.u.] -> [Pa]                                             2.94210107994716E+13
 [a.u.] -> [bar]                                            2.94210107994716E+08
 [a.u.] -> [atm]                                            2.90362800883016E+08
 [a.u.] -> [eV]                                             2.72113838565563E+01
 [a.u.] -> [Hz]                                             6.57968392072181E+15
 [a.u.] -> [1/cm] (wave numbers)                            2.19474631370540E+05
 [a.u./Bohr**2] -> [1/cm]                                   5.14048714338585E+03
 

 CELL_TOP| Volume [angstrom^3]:                                     27000.000000
 CELL_TOP| Vector a [angstrom    30.000     0.000     0.000   |a| =    30.000000
 CELL_TOP| Vector b [angstrom     0.000    30.000     0.000   |b| =    30.000000
 CELL_TOP| Vector c [angstrom     0.000     0.000    30.000   |c| =    30.000000
 CELL_TOP| Angle (b,c), alpha [degree]:                                90.000000
 CELL_TOP| Angle (a,c), beta  [degree]:                                90.000000
 CELL_TOP| Angle (a,b), gamma [degree]:                                90.000000
 CELL_TOP| Numerically orthorhombic:                                         YES
 CELL_TOP| Periodicity                                                      NONE

 GENERATE|  Preliminary Number of Bonds generated:                             0
 GENERATE|  Achieved consistency in connectivity generation.

 CELL| Volume [angstrom^3]:                                         27000.000000
 CELL| Vector a [angstrom]:      30.000     0.000     0.000   |a| =    30.000000
 CELL| Vector b [angstrom]:       0.000    30.000     0.000   |b| =    30.000000
 CELL| Vector c [angstrom]:       0.000     0.000    30.000   |c| =    30.000000
 CELL| Angle (b,c), alpha [degree]:                                    90.000000
 CELL| Angle (a,c), beta  [degree]:                                    90.000000
 CELL| Angle (a,b), gamma [degree]:                                    90.000000
 CELL| Numerically orthorhombic:                                             YES
 CELL| Periodicity                                                          NONE

 CELL_REF| Volume [angstrom^3]:                                     27000.000000
 CELL_REF| Vector a [angstrom    30.000     0.000     0.000   |a| =    30.000000
 CELL_REF| Vector b [angstrom     0.000    30.000     0.000   |b| =    30.000000
 CELL_REF| Vector c [angstrom     0.000     0.000    30.000   |c| =    30.000000
 CELL_REF| Angle (b,c), alpha [degree]:                                90.000000
 CELL_REF| Angle (a,c), beta  [degree]:                                90.000000
 CELL_REF| Angle (a,b), gamma [degree]:                                90.000000
 CELL_REF| Numerically orthorhombic:                                         YES
 CELL_REF| Periodicity                                                      NONE

 *******************************************************************************
 *******************************************************************************
 **                                                                           **
 **     #####                         ##              ##                      **
 **    ##   ##            ##          ##              ##                      **
 **   ##     ##                       ##            ######                    **
 **   ##     ##  ##   ##  ##   #####  ##  ##   ####   ##    #####    #####    **
 **   ##     ##  ##   ##  ##  ##      ## ##   ##      ##   ##   ##  ##   ##   **
 **   ##  ## ##  ##   ##  ##  ##      ####     ###    ##   ######   ######    **
 **    ##  ###   ##   ##  ##  ##      ## ##      ##   ##   ##       ##        **
 **     #######   #####   ##   #####  ##  ##  ####    ##    #####   ##        **
 **           ##                                                    ##        **
 **                                                                           **
 **                                                ... make the atoms dance   **
 **                                                                           **
 **            Copyright (C) by CP2K developers group (2000-2025)             **
 **                      J. Chem. Phys. 152, 194103 (2020)                    **
 **                                                                           **
 *******************************************************************************

 DFT| Spin restricted Kohn-Sham (RKS) calculation                            RKS
 DFT| Multiplicity                                                             1
 DFT| Number of spin states                                                    1
 DFT| Charge                                                                   0
 DFT| Self-interaction correction (SIC)                                       NO
 DFT| Cutoffs: density                                              1.000000E-10
 DFT|          gradient                                             1.000000E-10
 DFT|          tau                                                  1.000000E-10
 DFT|          cutoff_smoothing_range                               0.000000E+00
 DFT| XC density smoothing                                                  NONE
 DFT| XC derivatives                                                          PW

 FUNCTIONAL| PBE:
 FUNCTIONAL| J.P.Perdew, K.Burke, M.Ernzerhof, Phys. Rev. Letter, vol. 77, n 18,
 FUNCTIONAL|  pp. 3865-3868, (1996)sx=0.750sc=1.000{spin unpolarized}           


 QS| Method:                                                                GAPW
 QS| Density plane wave grid type                        NON-SPHERICAL FULLSPACE
 QS| Number of grid levels:                                                    4
 QS| Density cutoff [a.u.]:                                                250.0
 QS| Multi grid cutoff [a.u.]: 1) grid level                               250.0
 QS|                           2) grid level                                83.3
 QS|                           3) grid level                                27.8
 QS|                           4) grid level                                 9.3
 QS| Grid level progression factor:                                          3.0
 QS| Relative density cutoff [a.u.]:                                        50.0
 QS| Interaction thresholds: eps_pgf_orb:                                1.0E-12
 QS|                         eps_filter_matrix:                          0.0E+00
 QS|                         eps_core_charge:                            1.0E-14
 QS|                         eps_rho_gspace:                             1.0E-12
 QS|                         eps_rho_rspace:                             1.0E-12
 QS|                         eps_gvg_rspace:                             1.0E-06
 QS|                         eps_ppl:                                    1.0E-02
 QS|                         eps_ppnl:                                   1.0E-08
 QS| GAPW|      One center basis from orbital basis primitives
 QS| GAPW|                   eps_fit:                                    1.0E-04
 QS| GAPW|                   eps_iso:                                    1.0E-12
 QS| GAPW|                   eps_svd:                                    1.0E-08
 QS| GAPW|                   eps_cpc:                                    1.0E-12
 QS| GAPW|   atom-r-grid: quadrature:                                     GC_LOG
 QS| GAPW|      atom-s-grid:  max l :                                          4
 QS| GAPW|      max_l_rho0 :                                                   2


 ATOMIC KIND INFORMATION

  1. Atomic kind: C                                     Number of atoms:       4

     Orbital Basis Set                                         aug-SZV-MOLOPT-ae

       Number of orbital shell sets:                                           2
       Number of orbital shells:                                               6
       Number of primitive Cartesian functions:                               13
       Number of Cartesian basis functions:                                   15
       Number of spherical basis functions:                                   14
       Norm type:                                                              2

       Normalised Cartesian orbitals:

                        Set   Shell   Orbital            Exponent    Coefficient

                          1       1    2s                0.070000       0.000000
                                                         0.143687       0.040037
                                                         0.313471       0.177689
                                                         0.721783       0.139661
                                                         1.876046      -0.038599
                                                         6.036200      -0.128975
                                                        30.497239      -0.122578

                          1       2    3s                0.070000      -0.142268
                                                         0.143687       0.288819
                                                         0.313471       0.010360
                                                         0.721783       0.175994
                                                         1.876046       0.000000
                                                         6.036200       0.000000
                                                        30.497239       0.000000

                          1       3    3px               0.070000       0.000000
                                                         0.143687       0.012825
                                                         0.313471       0.142381
                                                         0.721783       0.396426
                                                         1.876046       0.544234
                                                         6.036200       0.508157
                                                        30.497239       0.384077
                          1       3    3py               0.070000       0.000000
                                                         0.143687       0.012825
                                                         0.313471       0.142381
                                                         0.721783       0.396426
                                                         1.876046       0.544234
                                                         6.036200       0.508157
                                                        30.497239       0.384077
                          1       3    3pz               0.070000       0.000000
                                                         0.143687       0.012825
                                                         0.313471       0.142381
                                                         0.721783       0.396426
                                                         1.876046       0.544234
                                                         6.036200       0.508157
                                                        30.497239       0.384077

                          1       4    4px               0.070000       0.076505
                                                         0.143687      -0.086104
                                                         0.313471       0.010230
                                                         0.721783       0.129894
                                                         1.876046       0.000000
                                                         6.036200       0.000000
                                                        30.497239       0.000000
                          1       4    4py               0.070000       0.076505
                                                         0.143687      -0.086104
                                                         0.313471       0.010230
                                                         0.721783       0.129894
                                                         1.876046       0.000000
                                                         6.036200       0.000000
                                                        30.497239       0.000000
                          1       4    4pz               0.070000       0.076505
                                                         0.143687      -0.086104
                                                         0.313471       0.010230
                                                         0.721783       0.129894
                                                         1.876046       0.000000
                                                         6.036200       0.000000
                                                        30.497239       0.000000

                          1       5    4dx2              0.070000       0.004316
                                                         0.143687       0.012639
                                                         0.313471       0.125057
                                                         0.721783       0.080411
                                                         1.876046       0.000000
                                                         6.036200       0.000000
                                                        30.497239       0.000000
                          1       5    4dxy              0.070000       0.007476
                                                         0.143687       0.021892
                                                         0.313471       0.216606
                                                         0.721783       0.139276
                                                         1.876046       0.000000
                                                         6.036200       0.000000
                                                        30.497239       0.000000
                          1       5    4dxz              0.070000       0.007476
                                                         0.143687       0.021892
                                                         0.313471       0.216606
                                                         0.721783       0.139276
                                                         1.876046       0.000000
                                                         6.036200       0.000000
                                                        30.497239       0.000000
                          1       5    4dy2              0.070000       0.004316
                                                         0.143687       0.012639
                                                         0.313471       0.125057
                                                         0.721783       0.080411
                                                         1.876046       0.000000
                                                         6.036200       0.000000
                                                        30.497239       0.000000
                          1       5    4dyz              0.070000       0.007476
                                                         0.143687       0.021892
                                                         0.313471       0.216606
                                                         0.721783       0.139276
                                                         1.876046       0.000000
                                                         6.036200       0.000000
                                                        30.497239       0.000000
                          1       5    4dz2              0.070000       0.004316
                                                         0.143687       0.012639
                                                         0.313471       0.125057
                                                         0.721783       0.080411
                                                         1.876046       0.000000
                                                         6.036200       0.000000
                                                        30.497239       0.000000

                          2       1    1s              742.737049       0.929185
                                                       136.180025       1.402437
                                                        38.098264       1.841991
                                                        13.087782       1.817278
                                                         5.082369       1.004768
                                                         2.093200       0.161650

     RI Auxiliary Basis Set             RI_aug-SZV-MOLOPT-ae_N_RI_023_s_p_d_f_g_

       Number of orbital shell sets:                                           9
       Number of orbital shells:                                               9
       Number of primitive Cartesian functions:                                9
       Number of Cartesian basis functions:                                   27
       Number of spherical basis functions:                                   23
       Norm type:                                                              2

       Normalised Cartesian orbitals:

                        Set   Shell   Orbital            Exponent    Coefficient

                          1       1    1s                0.205603       0.217612

                          2       1    6px               0.237635       0.236498
                          2       1    6py               0.237635       0.236498
                          2       1    6pz               0.237635       0.236498

                          3       1    8dx2              0.581736       0.637793
                          3       1    8dxy              0.581736       1.104690
                          3       1    8dxz              0.581736       1.104690
                          3       1    8dy2              0.581736       0.637793
                          3       1    8dyz              0.581736       1.104690
                          3       1    8dz2              0.581736       0.637793

                          4       1    2s                0.804962       0.605678

                          5       1    7px               1.023757       1.467864
                          5       1    7py               1.023757       1.467864
                          5       1    7pz               1.023757       1.467864

                          6       1    9fx3              1.116833       1.887677
                          6       1    9fx2y             1.116833       4.220974
                          6       1    9fx2z             1.116833       4.220974
                          6       1    9fxy2             1.116833       4.220974
                          6       1    9fxyz             1.116833       7.310942
                          6       1    9fxz2             1.116833       4.220974
                          6       1    9fy3              1.116833       1.887677
                          6       1    9fy2z             1.116833       4.220974
                          6       1    9fyz2             1.116833       4.220974
                          6       1    9fz3              1.116833       1.887677

                          7       1    3s                4.605726       2.240700

                          8       1    4s               20.169126       6.783056

                          9       1    5s               81.661898      19.360862

       Atomic covalent radius [Angstrom]:                                  0.770

       Atomic van der Waals radius [Angstrom]:                             1.700

     The atoms of this atomic kind are PAW atoms (GAPW):
       Hard Gaussian function radius:                                      1.512
       Rho0 radius:                                                        1.512
       Maximum GTO radius used for PAW projector construction:            24.566

     GAPW Soft Basis Set                                  aug-SZV-MOLOPT-ae_soft

       Number of orbital shell sets:                                           2
       Number of orbital shells:                                               6
       Number of primitive Cartesian functions:                                6
       Number of Cartesian basis functions:                                   15
       Number of spherical basis functions:                                   14
       Norm type:                                                              2

       Normalised Cartesian orbitals:

                        Set   Shell   Orbital            Exponent    Coefficient

                          1       1    2s                0.070000       0.000000
                                                         0.143687       0.040037
                                                         0.313471       0.177689
                                                         0.721783       0.139661
                                                         1.876046      -0.038599

                          1       2    3s                0.070000      -0.142268
                                                         0.143687       0.288819
                                                         0.313471       0.010360
                                                         0.721783       0.175994
                                                         1.876046       0.000000

                          1       3    3px               0.070000       0.000000
                                                         0.143687       0.012825
                                                         0.313471       0.142381
                                                         0.721783       0.396426
                                                         1.876046       0.544234
                          1       3    3py               0.070000       0.000000
                                                         0.143687       0.012825
                                                         0.313471       0.142381
                                                         0.721783       0.396426
                                                         1.876046       0.544234
                          1       3    3pz               0.070000       0.000000
                                                         0.143687       0.012825
                                                         0.313471       0.142381
                                                         0.721783       0.396426
                                                         1.876046       0.544234

                          1       4    4px               0.070000       0.076505
                                                         0.143687      -0.086104
                                                         0.313471       0.010230
                                                         0.721783       0.129894
                                                         1.876046       0.000000
                          1       4    4py               0.070000       0.076505
                                                         0.143687      -0.086104
                                                         0.313471       0.010230
                                                         0.721783       0.129894
                                                         1.876046       0.000000
                          1       4    4pz               0.070000       0.076505
                                                         0.143687      -0.086104
                                                         0.313471       0.010230
                                                         0.721783       0.129894
                                                         1.876046       0.000000

                          1       5    4dx2              0.070000       0.004316
                                                         0.143687       0.012639
                                                         0.313471       0.125057
                                                         0.721783       0.080411
                                                         1.876046       0.000000
                          1       5    4dxy              0.070000       0.007476
                                                         0.143687       0.021892
                                                         0.313471       0.216606
                                                         0.721783       0.139276
                                                         1.876046       0.000000
                          1       5    4dxz              0.070000       0.007476
                                                         0.143687       0.021892
                                                         0.313471       0.216606
                                                         0.721783       0.139276
                                                         1.876046       0.000000
                          1       5    4dy2              0.070000       0.004316
                                                         0.143687       0.012639
                                                         0.313471       0.125057
                                                         0.721783       0.080411
                                                         1.876046       0.000000
                          1       5    4dyz              0.070000       0.007476
                                                         0.143687       0.021892
                                                         0.313471       0.216606
                                                         0.721783       0.139276
                                                         1.876046       0.000000
                          1       5    4dz2              0.070000       0.004316
                                                         0.143687       0.012639
                                                         0.313471       0.125057
                                                         0.721783       0.080411
                                                         1.876046       0.000000

                          2       1    1s                2.093200       0.161650

     AE Potential information for                                            ALL

       Description:                                       All-electron potential
                                          Krack, Parrinello, PCCP 2, 2105 (2000)

       Gaussian exponent of the core charge distribution:               4.109048
       Electronic configuration (s p d ...):                           4   2   0

  2. Atomic kind: H                                     Number of atoms:       6

     Orbital Basis Set                                         aug-SZV-MOLOPT-ae

       Number of orbital shell sets:                                           1
       Number of orbital shells:                                               4
       Number of primitive Cartesian functions:                                7
       Number of Cartesian basis functions:                                    6
       Number of spherical basis functions:                                    6
       Norm type:                                                              2

       Normalised Cartesian orbitals:

                        Set   Shell   Orbital            Exponent    Coefficient

                          1       1    1s                0.065428       0.000000
                                                         0.100112       0.016532
                                                         0.243077       0.102760
                                                         0.625955       0.185857
                                                         1.822143       0.188385
                                                         6.513144       0.143430
                                                        35.523221       0.095030

                          1       2    2s                0.065428       0.083549
                                                         0.100112       0.009605
                                                         0.243077       0.002524
                                                         0.625955       0.013457
                                                         1.822143       0.000000
                                                         6.513144       0.000000
                                                        35.523221       0.000000

                          1       3    3s                0.065428       0.037407
                                                         0.100112      -0.169070
                                                         0.243077      -0.018899
                                                         0.625955       0.012806
                                                         1.822143       0.000000
                                                         6.513144       0.000000
                                                        35.523221       0.000000

                          1       4    2px               0.065428       0.059908
                                                         0.100112      -0.023770
                                                         0.243077       0.000032
                                                         0.625955       0.017779
                                                         1.822143       0.000000
                                                         6.513144       0.000000
                                                        35.523221       0.000000
                          1       4    2py               0.065428       0.059908
                                                         0.100112      -0.023770
                                                         0.243077       0.000032
                                                         0.625955       0.017779
                                                         1.822143       0.000000
                                                         6.513144       0.000000
                                                        35.523221       0.000000
                          1       4    2pz               0.065428       0.059908
                                                         0.100112      -0.023770
                                                         0.243077       0.000032
                                                         0.625955       0.017779
                                                         1.822143       0.000000
                                                         6.513144       0.000000
                                                        35.523221       0.000000

     RI Auxiliary Basis Set             RI_aug-SZV-MOLOPT-ae_N_RI_006_s_p_d_f_g_

       Number of orbital shell sets:                                           4
       Number of orbital shells:                                               4
       Number of primitive Cartesian functions:                                4
       Number of Cartesian basis functions:                                    6
       Number of spherical basis functions:                                    6
       Norm type:                                                              2

       Normalised Cartesian orbitals:

                        Set   Shell   Orbital            Exponent    Coefficient

                          1       1    4px               0.374198       0.417174
                          1       1    4py               0.374198       0.417174
                          1       1    4pz               0.374198       0.417174

                          2       1    1s                0.432727       0.380251

                          3       1    2s                1.080245       0.755182

                          4       1    3s                4.115952       2.059505

       Atomic covalent radius [Angstrom]:                                  0.320

       Atomic van der Waals radius [Angstrom]:                             1.090

     The atoms of this atomic kind are PAW atoms (GAPW):
       Hard Gaussian function radius:                                      1.200
       Rho0 radius:                                                        1.200
       Maximum GTO radius used for PAW projector construction:            24.566

     GAPW Soft Basis Set                                  aug-SZV-MOLOPT-ae_soft

       Number of orbital shell sets:                                           1
       Number of orbital shells:                                               4
       Number of primitive Cartesian functions:                                6
       Number of Cartesian basis functions:                                    6
       Number of spherical basis functions:                                    6
       Norm type:                                                              2

       Normalised Cartesian orbitals:

                        Set   Shell   Orbital            Exponent    Coefficient

                          1       1    1s                0.065428       0.000000
                                                         0.100112       0.016532
                                                         0.243077       0.102760
                                                         0.625955       0.185857
                                                         1.822143       0.188385
                                                         6.513144       0.000000

                          1       2    2s                0.065428       0.083549
                                                         0.100112       0.009605
                                                         0.243077       0.002524
                                                         0.625955       0.013457
                                                         1.822143       0.000000
                                                         6.513144       0.000000

                          1       3    3s                0.065428       0.037407
                                                         0.100112      -0.169070
                                                         0.243077      -0.018899
                                                         0.625955       0.012806
                                                         1.822143       0.000000
                                                         6.513144       0.000000

                          1       4    2px               0.065428       0.059908
                                                         0.100112      -0.023770
                                                         0.243077       0.000032
                                                         0.625955       0.017779
                                                         1.822143       0.000000
                                                         6.513144       0.000000
                          1       4    2py               0.065428       0.059908
                                                         0.100112      -0.023770
                                                         0.243077       0.000032
                                                         0.625955       0.017779
                                                         1.822143       0.000000
                                                         6.513144       0.000000
                          1       4    2pz               0.065428       0.059908
                                                         0.100112      -0.023770
                                                         0.243077       0.000032
                                                         0.625955       0.017779
                                                         1.822143       0.000000
                                                         6.513144       0.000000

     AE Potential information for                                            ALL

       Description:                                       All-electron potential
                                          Krack, Parrinello, PCCP 2, 2105 (2000)

       Gaussian exponent of the core charge distribution:              12.500000
       Electronic configuration (s p d ...):                           1   0   0

  3. Atomic kind: N                                     Number of atoms:       2

     Orbital Basis Set                                         aug-SZV-MOLOPT-ae

       Number of orbital shell sets:                                           2
       Number of orbital shells:                                               6
       Number of primitive Cartesian functions:                               13
       Number of Cartesian basis functions:                                   15
       Number of spherical basis functions:                                   14
       Norm type:                                                              2

       Normalised Cartesian orbitals:

                        Set   Shell   Orbital            Exponent    Coefficient

                          1       1    1s                0.090000       0.000000
                                                         0.184684       0.048330
                                                         0.402911       0.214496
                                                         0.927724       0.168591
                                                         2.411326      -0.046594
                                                         7.758467      -0.155691
                                                        39.198808      -0.147969

                          1       2    2s                0.090000      -0.118940
                                                         0.184684       0.080942
                                                         0.402911      -0.164238
                                                         0.927724      -0.024406
                                                         2.411326       0.000000
                                                         7.758467       0.000000
                                                        39.198808       0.000000

                          1       3    2px               0.090000       0.000000
                                                         0.184684       0.017552
                                                         0.402911       0.194858
                                                         0.927724       0.542535
                                                         2.411326       0.744820
                                                         7.758467       0.695446
                                                        39.198808       0.525635
                          1       3    2py               0.090000       0.000000
                                                         0.184684       0.017552
                                                         0.402911       0.194858
                                                         0.927724       0.542535
                                                         2.411326       0.744820
                                                         7.758467       0.695446
                                                        39.198808       0.525635
                          1       3    2pz               0.090000       0.000000
                                                         0.184684       0.017552
                                                         0.402911       0.194858
                                                         0.927724       0.542535
                                                         2.411326       0.744820
                                                         7.758467       0.695446
                                                        39.198808       0.525635

                          1       4    3px               0.090000      -0.032237
                                                         0.184684      -0.080882
                                                         0.402911       0.112185
                                                         0.927724       1.067728
                                                         2.411326       0.000000
                                                         7.758467       0.000000
                                                        39.198808       0.000000
                          1       4    3py               0.090000      -0.032237
                                                         0.184684      -0.080882
                                                         0.402911       0.112185
                                                         0.927724       1.067728
                                                         2.411326       0.000000
                                                         7.758467       0.000000
                                                        39.198808       0.000000
                          1       4    3pz               0.090000      -0.032237
                                                         0.184684      -0.080882
                                                         0.402911       0.112185
                                                         0.927724       1.067728
                                                         2.411326       0.000000
                                                         7.758467       0.000000
                                                        39.198808       0.000000

                          1       5    3dx2              0.090000      -0.010633
                                                         0.184684      -0.050923
                                                         0.402911       0.103346
                                                         0.927724      -0.777682
                                                         2.411326       0.000000
                                                         7.758467       0.000000
                                                        39.198808       0.000000
                          1       5    3dxy              0.090000      -0.018417
                                                         0.184684      -0.088201
                                                         0.402911       0.179000
                                                         0.927724      -1.346985
                                                         2.411326       0.000000
                                                         7.758467       0.000000
                                                        39.198808       0.000000
                          1       5    3dxz              0.090000      -0.018417
                                                         0.184684      -0.088201
                                                         0.402911       0.179000
                                                         0.927724      -1.346985
                                                         2.411326       0.000000
                                                         7.758467       0.000000
                                                        39.198808       0.000000
                          1       5    3dy2              0.090000      -0.010633
                                                         0.184684      -0.050923
                                                         0.402911       0.103346
                                                         0.927724      -0.777682
                                                         2.411326       0.000000
                                                         7.758467       0.000000
                                                        39.198808       0.000000
                          1       5    3dyz              0.090000      -0.018417
                                                         0.184684      -0.088201
                                                         0.402911       0.179000
                                                         0.927724      -1.346985
                                                         2.411326       0.000000
                                                         7.758467       0.000000
                                                        39.198808       0.000000
                          1       5    3dz2              0.090000      -0.010633
                                                         0.184684      -0.050923
                                                         0.402911       0.103346
                                                         0.927724      -0.777682
                                                         2.411326       0.000000
                                                         7.758467       0.000000
                                                        39.198808       0.000000

                          2       1    1s             1027.828458       1.185541
                                                       188.451223       1.789359
                                                        52.721861       2.350183
                                                        18.111382       2.318652
                                                         7.033180       1.281976
                                                         2.896652       0.206248

     RI Auxiliary Basis Set             RI_aug-SZV-MOLOPT-ae_N_RI_019_s_p_d_f_g_

       Number of orbital shell sets:                                           7
       Number of orbital shells:                                               7
       Number of primitive Cartesian functions:                                7
       Number of Cartesian basis functions:                                   23
       Number of spherical basis functions:                                   19
       Norm type:                                                              2

       Normalised Cartesian orbitals:

                        Set   Shell   Orbital            Exponent    Coefficient

                          1       1    1s                0.312352       0.297778

                          2       1    7fx3              0.360426       0.148180
                          2       1    7fx2y             0.360426       0.331341
                          2       1    7fx2z             0.360426       0.331341
                          2       1    7fxy2             0.360426       0.331341
                          2       1    7fxyz             0.360426       0.573900
                          2       1    7fxz2             0.360426       0.331341
                          2       1    7fy3              0.360426       0.148180
                          2       1    7fy2z             0.360426       0.331341
                          2       1    7fyz2             0.360426       0.331341
                          2       1    7fz3              0.360426       0.148180

                          3       1    6dx2              1.241601       2.403689
                          3       1    6dxy              1.241601       4.163311
                          3       1    6dxz              1.241601       4.163311
                          3       1    6dy2              1.241601       2.403689
                          3       1    6dyz              1.241601       4.163311
                          3       1    6dz2              1.241601       2.403689

                          4       1    5px               1.380630       2.133226
                          4       1    5py               1.380630       2.133226
                          4       1    5pz               1.380630       2.133226

                          5       1    2s                2.078392       1.233689

                          6       1    3s               12.717681       4.799721

                          7       1    4s              112.364786      24.597035

       Atomic covalent radius [Angstrom]:                                  0.750

       Atomic van der Waals radius [Angstrom]:                             1.550

     The atoms of this atomic kind are PAW atoms (GAPW):
       Hard Gaussian function radius:                                      1.512
       Rho0 radius:                                                        1.512
       Maximum GTO radius used for PAW projector construction:            24.566

     GAPW Soft Basis Set                                  aug-SZV-MOLOPT-ae_soft

       Number of orbital shell sets:                                           2
       Number of orbital shells:                                               6
       Number of primitive Cartesian functions:                                6
       Number of Cartesian basis functions:                                   15
       Number of spherical basis functions:                                   14
       Norm type:                                                              2

       Normalised Cartesian orbitals:

                        Set   Shell   Orbital            Exponent    Coefficient

                          1       1    1s                0.090000       0.000000
                                                         0.184684       0.048330
                                                         0.402911       0.214496
                                                         0.927724       0.168591
                                                         2.411326      -0.046594

                          1       2    2s                0.090000      -0.118940
                                                         0.184684       0.080942
                                                         0.402911      -0.164238
                                                         0.927724      -0.024406
                                                         2.411326       0.000000

                          1       3    2px               0.090000       0.000000
                                                         0.184684       0.017552
                                                         0.402911       0.194858
                                                         0.927724       0.542535
                                                         2.411326       0.744820
                          1       3    2py               0.090000       0.000000
                                                         0.184684       0.017552
                                                         0.402911       0.194858
                                                         0.927724       0.542535
                                                         2.411326       0.744820
                          1       3    2pz               0.090000       0.000000
                                                         0.184684       0.017552
                                                         0.402911       0.194858
                                                         0.927724       0.542535
                                                         2.411326       0.744820

                          1       4    3px               0.090000      -0.032237
                                                         0.184684      -0.080882
                                                         0.402911       0.112185
                                                         0.927724       1.067728
                                                         2.411326       0.000000
                          1       4    3py               0.090000      -0.032237
                                                         0.184684      -0.080882
                                                         0.402911       0.112185
                                                         0.927724       1.067728
                                                         2.411326       0.000000
                          1       4    3pz               0.090000      -0.032237
                                                         0.184684      -0.080882
                                                         0.402911       0.112185
                                                         0.927724       1.067728
                                                         2.411326       0.000000

                          1       5    3dx2              0.090000      -0.010633
                                                         0.184684      -0.050923
                                                         0.402911       0.103346
                                                         0.927724      -0.777682
                                                         2.411326       0.000000
                          1       5    3dxy              0.090000      -0.018417
                                                         0.184684      -0.088201
                                                         0.402911       0.179000
                                                         0.927724      -1.346985
                                                         2.411326       0.000000
                          1       5    3dxz              0.090000      -0.018417
                                                         0.184684      -0.088201
                                                         0.402911       0.179000
                                                         0.927724      -1.346985
                                                         2.411326       0.000000
                          1       5    3dy2              0.090000      -0.010633
                                                         0.184684      -0.050923
                                                         0.402911       0.103346
                                                         0.927724      -0.777682
                                                         2.411326       0.000000
                          1       5    3dyz              0.090000      -0.018417
                                                         0.184684      -0.088201
                                                         0.402911       0.179000
                                                         0.927724      -1.346985
                                                         2.411326       0.000000
                          1       5    3dz2              0.090000      -0.010633
                                                         0.184684      -0.050923
                                                         0.402911       0.103346
                                                         0.927724      -0.777682
                                                         2.411326       0.000000

                          2       1    1s                2.896652       0.206248

     AE Potential information for                                            ALL

       Description:                                       All-electron potential
                                          Krack, Parrinello, PCCP 2, 2105 (2000)

       Gaussian exponent of the core charge distribution:               5.979100
       Electronic configuration (s p d ...):                           4   3   0


 MOLECULE KIND INFORMATION


 All atoms are their own molecule, skipping detailed information


 TOTAL NUMBERS AND MAXIMUM NUMBERS

  Total number of            - Atomic kinds:                                   3
                             - Atoms:                                         12
                             - Shell sets:                                    18
                             - Shells:                                        60
                             - Primitive Cartesian functions:                120
                             - Cartesian basis functions:                    126
                             - Spherical basis functions:                    120

  Maximum angular momentum of the orbital basis functions:                     2


 MODULE QUICKSTEP: ATOMIC COORDINATES IN ANGSTROM

   Atom Kind Element         X             Y             Z       Z(eff)     Mass
      1    1 C     6     15.395189     13.757212     15.982319   6.0000  12.0107
      2    2 H     1     15.152820     13.892840     17.045962   1.0000   1.0079
      3    2 H     1     14.854025     12.869974     15.630792   1.0000   1.0079
      4    2 H     1     16.470084     13.535359     15.920457   1.0000   1.0079
      5    1 C     6     14.147647     15.051382     14.116958   6.0000  12.0107
      6    2 H     1     13.529916     14.299091     13.638399   1.0000   1.0079
      7    3 N     7     14.151828     16.349292     13.707247   7.0000  14.0067
      8    2 H     1     13.618491     16.763418     12.954038   1.0000   1.0079
      9    3 N     7     14.982666     17.130026     14.424633   7.0000  14.0067
     10    1 C     6     15.036289     14.966605     15.178086   6.0000  12.0107
     11    1 C     6     15.520138     16.291540     15.317910   6.0000  12.0107
     12    2 H     1     16.241565     16.670686     16.036146   1.0000   1.0079



 SCF PARAMETERS         Density guess:                                    ATOMIC
                        --------------------------------------------------------
                        max_scf:                                             500
                        max_scf_history:                                       0
                        max_diis:                                              4
                        --------------------------------------------------------
                        eps_scf:                                        1.00E-06
                        eps_scf_history:                                0.00E+00
                        eps_diis:                                       1.00E-01
                        eps_eigval:                                     1.00E-05
                        --------------------------------------------------------
                        level_shift [a.u.]:                             0.000000
                        added MOs                                        98    0
                        --------------------------------------------------------
                        Mixing method:                            BROYDEN_MIXING
                                                charge density mixing in g-space
                        --------------------------------------------------------
                        No outer SCF

 PW_GRID| Information for grid number                                          1
 PW_GRID| Grid distributed over                                    80 processors
 PW_GRID| Real space group dimensions                                    80    1
 PW_GRID| the grid is blocked:                                                NO
 PW_GRID| Cutoff [a.u.]                                                    250.0
 PW_GRID| spherical cutoff:                                                   NO
 PW_GRID|   Bounds   1           -202     202                Points:         405
 PW_GRID|   Bounds   2           -202     202                Points:         405
 PW_GRID|   Bounds   3           -202     202                Points:         405
 PW_GRID| Volume element (a.u.^3)  0.2743E-02     Volume (a.u.^3)    182205.0337
 PW_GRID| Grid span                                                    FULLSPACE
 PW_GRID|   Distribution                         Average         Max         Min
 PW_GRID|   G-Vectors                           830376.6      830655      830250
 PW_GRID|   G-Rays                                2050.3        2051        2050
 PW_GRID|   Real Space Points                   830376.6      984150      820125

 PW_GRID| Information for grid number                                          2
 PW_GRID| Number of the reference grid                                         1
 PW_GRID| Grid distributed over                                    80 processors
 PW_GRID| Real space group dimensions                                    80    1
 PW_GRID| the grid is blocked:                                                NO
 PW_GRID| Cutoff [a.u.]                                                     83.3
 PW_GRID| spherical cutoff:                                                   NO
 PW_GRID|   Bounds   1           -120     119                Points:         240
 PW_GRID|   Bounds   2           -120     119                Points:         240
 PW_GRID|   Bounds   3           -120     119                Points:         240
 PW_GRID| Volume element (a.u.^3)  0.1318E-01     Volume (a.u.^3)    182205.0337
 PW_GRID| Grid span                                                    FULLSPACE
 PW_GRID|   Distribution                         Average         Max         Min
 PW_GRID|   G-Vectors                           172800.0      173520      172320
 PW_GRID|   G-Rays                                 720.0         723         718
 PW_GRID|   Real Space Points                   172800.0      172800      172800

 PW_GRID| Information for grid number                                          3
 PW_GRID| Number of the reference grid                                         1
 PW_GRID| Grid distributed over                                    80 processors
 PW_GRID| Real space group dimensions                                    80    1
 PW_GRID| the grid is blocked:                                                NO
 PW_GRID| Cutoff [a.u.]                                                     27.8
 PW_GRID| spherical cutoff:                                                   NO
 PW_GRID|   Bounds   1            -67      67                Points:         135
 PW_GRID|   Bounds   2            -67      67                Points:         135
 PW_GRID|   Bounds   3            -67      67                Points:         135
 PW_GRID| Volume element (a.u.^3)  0.7406E-01     Volume (a.u.^3)    182205.0337
 PW_GRID| Grid span                                                    FULLSPACE
 PW_GRID|   Distribution                         Average         Max         Min
 PW_GRID|   G-Vectors                            30754.7       31050       30510
 PW_GRID|   G-Rays                                 227.8         230         226
 PW_GRID|   Real Space Points                    30754.7       36450       18225

 PW_GRID| Information for grid number                                          4
 PW_GRID| Number of the reference grid                                         1
 PW_GRID| Grid distributed over                                    80 processors
 PW_GRID| Real space group dimensions                                    80    1
 PW_GRID| the grid is blocked:                                                NO
 PW_GRID| Cutoff [a.u.]                                                      9.3
 PW_GRID| spherical cutoff:                                                   NO
 PW_GRID|   Bounds   1            -40      39                Points:          80
 PW_GRID|   Bounds   2            -40      39                Points:          80
 PW_GRID|   Bounds   3            -40      39                Points:          80
 PW_GRID| Volume element (a.u.^3)  0.3559         Volume (a.u.^3)    182205.0337
 PW_GRID| Grid span                                                    FULLSPACE
 PW_GRID|   Distribution                         Average         Max         Min
 PW_GRID|   G-Vectors                             6400.0        6640        6240
 PW_GRID|   G-Rays                                  80.0          83          78
 PW_GRID|   Real Space Points                     6400.0        6400        6400

 POISSON| Solver                                                         WAVELET
 POISSON| Wavelet| Scaling function                                           40
 POISSON| Periodicity                                                       NONE

 RS_GRID| Information for grid number                                          1
 RS_GRID|   Bounds   1           -202     202                Points:         405
 RS_GRID|   Bounds   2           -202     202                Points:         405
 RS_GRID|   Bounds   3           -202     202                Points:         405
 RS_GRID| Real space distribution over                                  4 groups
 RS_GRID| Real space distribution along direction                              1
 RS_GRID| Border size                                                         33
 RS_GRID| Real space distribution over                                  4 groups
 RS_GRID| Real space distribution along direction                              2
 RS_GRID| Border size                                                         33
 RS_GRID| Real space distribution over                                  5 groups
 RS_GRID| Real space distribution along direction                              3
 RS_GRID| Border size                                                         33
 RS_GRID|   Distribution                         Average         Max         Min
 RS_GRID|   Planes                                 167.2         168         167
 RS_GRID|   Distribution                         Average         Max         Min
 RS_GRID|   Planes                                 167.2         168         167
 RS_GRID|   Distribution                         Average         Max         Min
 RS_GRID|   Planes                                 147.0         147         147

 RS_GRID| Information for grid number                                          2
 RS_GRID|   Bounds   1           -120     119                Points:         240
 RS_GRID|   Bounds   2           -120     119                Points:         240
 RS_GRID|   Bounds   3           -120     119                Points:         240
 RS_GRID| Real space distribution over                                  4 groups
 RS_GRID| Real space distribution along direction                              1
 RS_GRID| Border size                                                         36
 RS_GRID| Real space distribution over                                  4 groups
 RS_GRID| Real space distribution along direction                              2
 RS_GRID| Border size                                                         36
 RS_GRID| Real space distribution over                                  5 groups
 RS_GRID| Real space distribution along direction                              3
 RS_GRID| Border size                                                         36
 RS_GRID|   Distribution                         Average         Max         Min
 RS_GRID|   Planes                                 132.0         132         132
 RS_GRID|   Distribution                         Average         Max         Min
 RS_GRID|   Planes                                 132.0         132         132
 RS_GRID|   Distribution                         Average         Max         Min
 RS_GRID|   Planes                                 120.0         120         120

 RS_GRID| Information for grid number                                          3
 RS_GRID|   Bounds   1            -67      67                Points:         135
 RS_GRID|   Bounds   2            -67      67                Points:         135
 RS_GRID|   Bounds   3            -67      67                Points:         135
 RS_GRID| Real space fully replicated
 RS_GRID| Group size                                                           1

 RS_GRID| Information for grid number                                          4
 RS_GRID|   Bounds   1            -40      39                Points:          80
 RS_GRID|   Bounds   2            -40      39                Points:          80
 RS_GRID|   Bounds   3            -40      39                Points:          80
 RS_GRID| Real space fully replicated
 RS_GRID| Group size                                                           1

  HFX_INFO| Replica ID:                                                        1
  HFX_INFO| FRACTION:                                               0.2500000000
  HFX_INFO| Interaction Potential:                                       COULOMB
  HFX_INFO| EPS_SCHWARZ:                                                 1.0E-10
  HFX_INFO| EPS_SCHWARZ_FORCES                                           1.0E-08
  HFX_INFO| EPS_STORAGE_SCALING:                                         1.0E+00
  HFX_INFO| NBINS:                                                            64
  HFX_INFO| BLOCK_SIZE:                                                        1
  HFX_INFO| Number of periodic shells considered:                           NONE
  HFX_INFO| Number of periodic cells considered:                            NONE


 OVERLAP MATRIX CONDITION NUMBER
 1-Norm Condition Number (Estimate)
   CN : |A|*|A^-1|:  2.018E+001 *  1.347E+004   = 2.719E+005  Log(1-CN):  5.4344
 1-Norm and 2-Norm Condition Numbers using Diagonalization
   CN : |A|*|A^-1|:  2.018E+001 *  1.344E+004   = 2.711E+005  Log(1-CN):  5.4332
   CN : max/min ev:  9.259E+000 /  1.940E-004   = 4.772E+004  Log(2-CN):  4.6787

 Number of electrons:                                                         44
 Number of occupied orbitals:                                                 22
 Number of molecular orbitals:                                               120

 Number of orbital functions:                                                120
 Number of independent orbital functions:                                    120

 Extrapolation method: initial_guess

 Atomic guess: The first density matrix is obtained in terms of atomic orbitals
               and electronic configurations assigned to each atomic kind

 Guess for atomic kind: C

 Electronic structure
    Total number of core electrons                                          0.00
    Total number of valence electrons                                       6.00
    Total number of electrons                                               6.00
    Multiplicity                                                   not specified
    S      2.00  2.00
    P      2.00


 *******************************************************************************
                  Iteration          Convergence                     Energy [au]
 *******************************************************************************
                          1        0.181972E-01                 -37.327047058214
                          2        0.113690E-01                 -37.327375013153
                          3        0.204442E-03                 -37.327563854518
                          4        0.318580E-06                 -37.327563914839

 Energy components [Hartree]           Total Energy ::          -37.327563914839
                                        Band Energy ::          -20.907151793925
                                     Kinetic Energy ::           37.918401132701
                                   Potential Energy ::          -75.245965047540
                                      Virial (-V/T) ::            1.984418192745
                                        Core Energy ::          -50.466619839572
                                          XC Energy ::           -4.803795746723
[...]
 cp2k_distribution_to_z_slices       73  9.0    0.272    0.302    0.732    0.759
 calculate_vxc_atom                  73  8.0    0.026    0.087    0.752    0.755
 compute_fm_W_MIC_freq_j             30  9.0    0.000    0.000    0.743    0.743
 integrate_four_center_main          73 10.0    0.023    0.116    0.561    0.729
 integrate_four_center_bin         9380 11.0    0.538    0.719    0.538    0.719
 mp_sum_dm                         2699  7.7    0.607    0.704    0.607    0.704
 fft_wrap_pw1pw2_90                 146 10.5    0.022    0.024    0.666    0.695
 gaVxcgb_GC                         144  9.0    0.046    0.620    0.046    0.620
 eigensolver_symm                    72  6.0    0.005    0.006    0.579    0.585
 powell_optimize                 385889 11.0    0.555    0.563    0.555    0.563
 compute_V_xc                         1  7.0    0.000    0.000    0.531    0.531
 pw_poisson_set                      74  9.0    0.001    0.001    0.495    0.529
 calc_screening_functions             1 10.0    0.199    0.204    0.513    0.521
 pw_copy_to_array                   727 11.8    0.428    0.519    0.428    0.519
 cp_cfm_power                        30 10.0    0.000    0.000    0.510    0.511
 copy_dbcsr_to_fm                   266  8.4    0.002    0.003    0.494    0.510
 cp_cfm_heevd                        32 10.8    0.000    0.000    0.505    0.506
 cp_cfm_heevd_base                   32 11.8    0.505    0.506    0.505    0.506
 dbt_tas_distribution_new          1426 14.4    0.263    0.275    0.502    0.506
 mp_isend_dv                      16691 12.8    0.247    0.503    0.247    0.503
 dbcsr_complete_redistribute        562  9.5    0.014    0.019    0.483    0.495
 rs_grid_zero                       367 11.2    0.465    0.492    0.465    0.492
 parallel_gemm_fm                   328  8.3    0.000    0.000    0.435    0.480
 parallel_gemm_fm_cosma             328  9.3    0.434    0.480    0.434    0.480
 calculate_rho_atom                 219  9.0    0.223    0.480    0.223    0.480
 transfer_pw2rs_10                   73 12.0    0.117    0.125    0.394    0.471
 dbt_tas_create_split              1270 15.1    0.001    0.001    0.468    0.471
 dbt_tas_create_split_rows_or_c    1270 16.1    0.003    0.003    0.467    0.470
 write_matrix                        91  8.0    0.000    0.000    0.409    0.468
 dbt_tas_estimate_result_nze        185 12.9    0.006    0.009    0.464    0.465
 G_times_3c                          60  8.0    0.000    0.000    0.451    0.451
 pw_copy_from_array                 797 12.1    0.368    0.445    0.368    0.445
 fm_write                           121  9.0    0.005    0.275    0.336    0.424
 pw_integral_ab_c1d_c1d_gs           73  9.0    0.320    0.327    0.405    0.421
 calculate_dm_sparse                 72  6.0    0.000    0.000    0.301    0.419
 cp_dbcsr_plus_fm_fm_t               72  7.0    0.001    0.001    0.300    0.418
 cp_fm_diag_elpa                     78  7.1    0.000    0.000    0.396    0.403
 calc_pair_dist_radii                 1 10.0    0.129    0.162    0.369    0.403
 rs_gather_matrices                  73 10.0    0.001    0.003    0.330    0.403
 cp_fm_diag_elpa_base                78  8.1    0.376    0.381    0.387    0.387
 pw_poisson_rebuild                  73  9.0    0.000    0.000    0.375    0.387
 ps_wavelet_create                    1 10.0    0.000    0.000    0.375    0.387
 RS_z_slice_distribution              1 11.0    0.252    0.278    0.375    0.387
 fm_to_local_tensor                 152  8.0    0.001    0.001    0.364    0.367
 mp_sum_dv                         3937  8.6    0.318    0.364    0.318    0.364
 compute_3c_and_contract_W           23  8.0    0.000    0.000    0.351    0.351
 cp_fm_write_unformatted            125  9.9    0.346    0.350    0.347    0.350
 pw_axpy                            725  9.3    0.326    0.345    0.326    0.345
 transfer_rs2pw_10                   73  9.0    0.073    0.079    0.291    0.341
 reshape_mm_small                   370 14.4    0.024    0.026    0.335    0.338
 dbt_tas_dbm                        370 14.4    0.000    0.000    0.329    0.330
 grid_integrate_task_list            73 10.0    0.050    0.322    0.050    0.322
 parallel_gemm_cfm                  281 10.5    0.000    0.000    0.300    0.304
 parallel_gemm_cfm_cosma            281 11.5    0.299    0.304    0.299    0.304
 mp_isend_dm3                      2640 11.5    0.140    0.295    0.140    0.295
 dbcsr_multiply_generic              72  8.0    0.003    0.003    0.169    0.291
 mp_bcast_dm                       1753  9.0    0.257    0.264    0.257    0.264
 G_occ_vir                          121  8.0    0.000    0.003    0.220    0.259
 reshape_mm_compatible              370 14.4    0.004    0.004    0.243    0.249
 mp_cart_create                    2639 14.6    0.234    0.244    0.236    0.246
 init_scf_run                         1  3.0    0.000    0.000    0.239    0.239
 dbcsr_desymmetrize_deep            272  9.4    0.003    0.004    0.222    0.239
 dbm_multiply                       370 16.4    0.182    0.238    0.182    0.238
 check_sparsity_3c                    1  7.0    0.000    0.000    0.237    0.237
 copy_fm_to_dbcsr                   296  8.5    0.001    0.001    0.220    0.232
 scf_env_initial_rho_setup            1  4.0    0.000    0.000    0.231    0.231
 change_split                       555 14.9    0.002    0.002    0.221    0.226
 multiply_cannon                     72  9.0    0.004    0.004    0.098    0.221
 mp_alltoall_i11v                  1958 10.5    0.218    0.219    0.218    0.219
 dbt_create_matrix                  152  9.0    0.001    0.001    0.210    0.212
 multiply_cannon_loop                72 10.0    0.004    0.004    0.086    0.209
 pw_zero                            434 10.3    0.191    0.200    0.191    0.200
 mp_comm_split_direct              1272 17.1    0.197    0.199    0.197    0.199
 self_consistency_check              72  5.0    0.000    0.000    0.130    0.199
 cp_sm_mix                           72  6.0    0.000    0.000    0.130    0.199
 mp_max_d                            78  7.0    0.130    0.199    0.130    0.199
 calculate_rho_atom_coeff            73  6.0    0.017    0.026    0.195    0.196
 multiply_cannon_metrocomm3        1440 11.0    0.002    0.002    0.059    0.193
 qs_energies_init_hamiltonians        1  3.0    0.000    0.000    0.193    0.193
 build_core_hamiltonian_matrix        1  4.0    0.000    0.000    0.190    0.190
 overlap_condnum                      1  5.0    0.000    0.000    0.189    0.190
 dbt_distribution_new_expert        316 10.5    0.002    0.002    0.186    0.186
 compute_QP_energies                  1  7.0    0.000    0.000    0.184    0.184
 fft_wrap_pw1pw2_30                 146 10.5    0.004    0.005    0.172    0.179
 qs_init_subsys                       1  2.0    0.001    0.001    0.174    0.174
 arnoldi_conjugate_gradient           5  6.0    0.004    0.005    0.174    0.174
 qs_env_setup                         1  3.0    0.000    0.000    0.171    0.172
 qs_env_rebuild_pw_env                2  3.5    0.000    0.000    0.171    0.171
 pw_env_rebuild                       1  5.0    0.000    0.000    0.171    0.171
 compute_cfm_W_ikp_freq_j            30 10.0    0.000    0.001    0.170    0.170
 mp_comm_dup                       1089 17.4    0.164    0.168    0.165    0.169
 pw_grid_setup                        4  6.0    0.000    0.000    0.160    0.161
 pw_grid_setup_internal               4  7.0    0.002    0.003    0.160    0.161
 to_ikp_and_mo                       62  8.0    0.000    0.000    0.145    0.145
 fm_Gamma_ao_to_cfm_ikp_mo           62  9.0    0.000    0.000    0.142    0.144
 mp_max_i                           936  6.3    0.112    0.138    0.112    0.138
 mp_alltoall_i22                    834 10.5    0.111    0.134    0.111    0.134
 mp_sum_l                          2825 11.9    0.120    0.132    0.120    0.132
 dbt_tas_mm_2                       136 15.1    0.000    0.000    0.131    0.131
 multiply_cannon_metrocomm1        1440 11.0    0.001    0.001    0.012    0.128
 check_for_restart_files              1  7.0    0.107    0.126    0.107    0.126
 pw_grid_sort                         4  8.0    0.081    0.085    0.110    0.115
 convert_to_new_pgrid              1110 14.4    0.050    0.057    0.087    0.111
 abc_contract_xsmm                20808 10.6    0.028    0.110    0.028    0.110
 create_qs_kind_set                   1  2.0    0.000    0.000    0.107    0.108
 read_qs_kind                         3  3.0    0.024    0.036    0.107    0.108
 dbcsr_sym_matrix_vector_mult      1215  7.0    0.009    0.009    0.094    0.106
 Vh_1c_gg_integrals                  73  8.0    0.008    0.058    0.081    0.098
 fft_wrap_pw1pw2_10                 146 10.5    0.001    0.001    0.090    0.093
 dbt_copy                           408 10.0    0.002    0.002    0.076    0.092
 dbt_tas_replicate                  370 14.4    0.015    0.017    0.086    0.089
 fill_fm_Sigma_c_Gamma_time           1  8.0    0.000    0.000    0.088    0.088
 dbt_reshape                        250 10.9    0.029    0.032    0.069    0.085
 dbcsr_add_d                       2778  8.3    0.001    0.001    0.020    0.085
 parser_read_line                 10448  4.0    0.002    0.002    0.083    0.084
 dbcsr_add_anytype                 2778  9.3    0.003    0.009    0.019    0.083
 get_Sigma_x                          1  7.0    0.000    0.000    0.083    0.083
 compute_Sigma_x                      1  8.0    0.000    0.000    0.083    0.083
 parser_read_line_low                20  5.0    0.001    0.040    0.082    0.083
 broadcast_input_information         20  6.0    0.003    0.004    0.081    0.082
 dbt_tas_reshape                    487 14.5    0.003    0.003    0.066    0.079
 update_ks_atom                      73  8.0    0.013    0.029    0.065    0.079
 dbm_redistribute                   414 13.7    0.050    0.079    0.050    0.079
 hybrid_alltoall_any                416 11.0    0.002    0.002    0.075    0.078
 setup_time_and_frequency_minim       1  7.0    0.000    0.000    0.075    0.077
 dbcsr_finalize                    5684 11.2    0.009    0.020    0.038    0.076
 mp_alltoall_i                     1600 14.2    0.070    0.075    0.070    0.075
 mp_cart_sub                        548 10.4    0.073    0.074    0.073    0.074
 dbt_create_new                     158 10.0    0.001    0.001    0.073    0.073
 scale_and_distribute               146 10.0    0.060    0.071    0.060    0.071
 mp_bcast_i_src                      80  7.0    0.063    0.067    0.063    0.067
 compute_fm_chi_Gamma_freq           30 10.0    0.000    0.000    0.062    0.063
 dbt_tas_mm_1N                      100 15.5    0.000    0.000    0.034    0.063
 pw_scale                           289  9.5    0.041    0.061    0.041    0.061
 mp_isendrecv_dv                  23068 12.0    0.031    0.059    0.031    0.059
 cp_cfm_geeig                         2  7.0    0.000    0.000    0.057    0.058
 multiply_fm_W_MIC_time_with_Mi       2  9.0    0.000    0.000    0.057    0.057
 calculate_rho0_atom                219  9.0    0.052    0.053    0.052    0.053
 cp_cfm_cholesky_decompose           35 10.7    0.050    0.052    0.050    0.052
 make_m2s                           144  9.0    0.002    0.002    0.049    0.051
 dbt_pgrid_create_expert            320 11.5    0.000    0.000    0.050    0.051
 mp_rank_compare                   1524 13.0    0.044    0.049    0.044    0.049
 multiply_cannon_metrocomm4        1368 11.0    0.002    0.002    0.006    0.046
 mp_waitall_2                      2291 16.0    0.021    0.045    0.021    0.045
 integrate_four_center_load          73 10.0    0.000    0.000    0.037    0.043
 integrate_four_center_dist_KS       73 10.0    0.005    0.007    0.042    0.043
 hfx_load_balance                     1 11.0    0.000    0.000    0.037    0.043
 mp_irecv_dm3                      2640 11.5    0.014    0.042    0.014    0.042
 dbt_tas_mm_3T                       90 15.5    0.000    0.000    0.029    0.042
 dbt_tas_mm_3N                       44 15.5    0.000    0.000    0.037    0.042
 scf_post_calculation_gpw             1  3.0    0.000    0.000    0.041    0.041
 dbcsr_col_vec_to_rep_row          1215  8.0    0.004    0.004    0.032    0.041
 write_available_results              1  4.0    0.000    0.000    0.041    0.041
 write_mo_free_results                1  5.0    0.004    0.005    0.041    0.041
 cp_fm_symm                          72  7.0    0.035    0.040    0.035    0.040
 dos_pdos_ldos                        1  5.0    0.000    0.000    0.028    0.037
 integrate_four_center_getP          73 10.0    0.005    0.006    0.036    0.037
 vxc_of_r_new                       288  9.0    0.000    0.006    0.003    0.037
 hfx_load_balance_range               1 12.0    0.000    0.000    0.030    0.036
 rs_scatter_matrices                 73  7.0    0.001    0.001    0.035    0.036
 dbt_communicate_buffer             250 11.9    0.001    0.001    0.020    0.036
 dbcsr_rep_row_to_rep_col_vec      1215  8.0    0.003    0.003    0.019    0.034
 dbcsr_merge_all                   3882 12.3    0.013    0.025    0.019    0.034
 dbcsr_iterator_start             20503  9.4    0.018    0.025    0.021    0.032
 sort_shells                          4  9.0    0.029    0.032    0.029    0.032
 dbt_tas_communicate_buffer         857 16.5    0.005    0.007    0.021    0.030
 cp_cfm_cholesky_invert              31 11.0    0.029    0.030    0.029    0.030
 dbt_tas_mp_comm                    185 12.9    0.000    0.000    0.028    0.029
 mixing_init                          1  5.0    0.026    0.029    0.028    0.029
 mp_bcast_dv                       1215  9.0    0.018    0.028    0.018    0.028
 dbt_nd_mp_comm                     152 10.0    0.000    0.000    0.026    0.027
 get_l_sq_wghts_cos_tf_t_to_w         1  8.0    0.026    0.027    0.026    0.027
 get_l_sq_wghts_sin_tf_t_to_w         1  8.0    0.026    0.026    0.026    0.026
 dbt_tas_reshape_buffer_obtain      487 15.5    0.018    0.019    0.024    0.026
 dbcsr_work_create                 4586 11.2    0.008    0.018    0.011    0.026
 mp_maxloc_dv                      1619  1.0    0.021    0.025    0.021    0.025
 mp_sum_i                           530 14.0    0.023    0.025    0.023    0.025
 get_l_sq_wghts_cos_tf_w_to_t         1  8.0    0.022    0.023    0.023    0.024
 dbt_tas_replicate_alltoall         234 15.5    0.000    0.000    0.019    0.023
 make_images                        144 10.0    0.004    0.004    0.021    0.023
 xc_pw_smooth                        72 10.0    0.000    0.000    0.022    0.023
 delete_unnecessary_files             1  8.0    0.000    0.000    0.000    0.023
 safe_delete                         60  9.0    0.000    0.023    0.000    0.023
 dbt_tas_reshape_alltoall           487 15.5    0.000    0.000    0.020    0.022
 write_mo_set_to_restart             72  5.0    0.001    0.016    0.017    0.021
 dbt_tas_merge                      136 14.1    0.008    0.009    0.018    0.021
 cp_fm_power                          3  8.7    0.000    0.000    0.020    0.020
 hirshfeld_integration                1  6.0    0.001    0.005    0.019    0.019
 dbcsr_crop_matrix                  432 10.0    0.001    0.002    0.018    0.019
 dbt_tas_reshape_communicate_bu     487 15.5    0.001    0.001    0.009    0.019
 pw_grid_remap                        4  8.0    0.003    0.003    0.014    0.018
 global_matrix_to_local_matrix      152  9.0    0.001    0.001    0.017    0.018
 dbcsr_copy                        5630  7.8    0.009    0.011    0.016    0.018
 dbcsr_work_destroy_all            4586 12.1    0.006    0.012    0.008    0.017
 dbcsr_create_new                  9134  9.4    0.012    0.013    0.017    0.017
 mp_bcast_am_src                     20  7.0    0.014    0.017    0.014    0.017
 cp_fm_redistribute_start            78  8.1    0.000    0.000    0.009    0.017
 mp_bcast_b_src                     150  7.6    0.012    0.017    0.012    0.017
 dbcsr_iterator_stop              20503  9.4    0.010    0.014    0.012    0.016
 write_mo_set_low                     4  6.0    0.000    0.000    0.016    0.016
 calculate_hirshfeld_normalizat       1  6.0    0.001    0.005    0.016    0.016
 local_dbt_to_global_mat             91  8.0    0.000    0.000    0.015    0.016
 pw_grid_assign                       4  8.0    0.013    0.014    0.015    0.016
 mp_sum_im3                           6  9.5    0.011    0.015    0.011    0.015
 mp_bcast_av                        810  1.0    0.004    0.006    0.012    0.015
 dbm_reserve_blocks                2360 15.8    0.010    0.015    0.010    0.015
 dbcsr_copy_submatrix               432 11.0    0.002    0.002    0.014    0.014
 mp_comm_free                      5595 13.4    0.012    0.014    0.012    0.014
 mp_irecv_dv                      16251 12.8    0.008    0.014    0.008    0.014
 create_and_init_bs_env               1  5.0    0.000    0.000    0.014    0.014
 dbt_tas_reserve_blocks_index      1990 14.8    0.002    0.002    0.010    0.014
 dbt_tas_replicate_communicate_     234 15.5    0.001    0.001    0.010    0.013
 make_images_sizes                  144 11.0    0.000    0.000    0.011    0.013
 mp_alltoall_i44                    144 12.0    0.011    0.013    0.011    0.013
 RI_2c_integral_mat                   4  9.8    0.000    0.000    0.013    0.013
 dbcsr_filter_anytype               717  9.8    0.002    0.002    0.009    0.013
 local_matrix_to_global_matrix       91  9.0    0.000    0.000    0.011    0.012
 restraint_control                    1  2.0    0.000    0.000    0.012    0.012
 write_dos_pdos                       2  6.0    0.000    0.012    0.000    0.012
 dbcsr_data_new                   44727 11.6    0.007    0.012    0.007    0.012
 dbt_tas_reshape_buffer_fill        487 15.5    0.009    0.012    0.009    0.012
 mp_bcast_i                        1858 12.3    0.009    0.011    0.009    0.011
 dbcsr_data_release               70139 11.4    0.007    0.011    0.007    0.011
 dbt_tas_copy                       381 13.7    0.005    0.006    0.009    0.011
 cp_fm_uplo_to_full                  81  9.1    0.008    0.011    0.008    0.011
 mp_sum_im                           10  8.6    0.009    0.011    0.009    0.011
 external_control                    72  5.0    0.000    0.007    0.010    0.010
 hfx_create                           1  2.0    0.009    0.010    0.009    0.010
 evaluate_core_matrix_traces         72  6.0    0.000    0.000    0.008    0.009
 dbcsr_dot                          145  8.0    0.001    0.001    0.007    0.008
 compute_MinvVsqrt_Vsqrt              1  9.0    0.000    0.000    0.008    0.008
 calculate_ptrace_kp                144  7.0    0.000    0.000    0.007    0.008
 dbt_tas_create_new                1823 14.4    0.006    0.008    0.006    0.008
 diagonalize_ks_matrix                1  6.0    0.000    0.000    0.008    0.008
 cp_fm_geeig_canon                    1  7.0    0.000    0.000    0.008    0.008
 compute_max_radius                   1  6.0    0.008    0.008    0.008    0.008
 -------------------------------------------------------------------------------

 The number of warnings for this run is : 1
 
 -------------------------------------------------------------------------------
  **** **** ******  **  PROGRAM ENDED AT                 2025-05-29 21:03:44.536
 ***** ** ***  *** **   PROGRAM RAN ON                                  n2cn0191
 **    ****   ******    PROGRAM RAN BY                                  metdyn02
 ***** **    ** ** **   PROGRAM PROCESS ID                                128298
  **** **  *******  **  PROGRAM STOPPED IN /scratch/hpc-prf-metdyn/metdyn02_Remi
                                           /10_MOL/05_MOL_low_scal/05_MOL/aUKBqs
                                           EOTmq69kFe5R_nOg/5k_set_final_qzvp/HO
                                           QHUQ/SZV/1e-2/5.0
