 DBCSR| CPU Multiplication driver                                           BLAS (U)
 DBCSR| Multrec recursion limit                                              512 (U)
 DBCSR| Multiplication stack size                                           1000 (D)
 DBCSR| Maximum elements for images                                    UNLIMITED (U)
 DBCSR| Multiplicative factor virtual images                                   1 (U)
 DBCSR| Use multiplication densification                                       T (D)
 DBCSR| Multiplication size stacks                                             3 (U)
 DBCSR| Use memory pool for CPU allocation                                     F (U)
 DBCSR| Number of 3D layers                                               SINGLE (U)
 DBCSR| Use MPI memory allocation                                              F (U)
 DBCSR| Use RMA algorithm                                                      F (U)
 DBCSR| Use Communication thread                                               T (U)
 DBCSR| Communication thread load                                             75 (D)
 DBCSR| MPI: My process id                                                     0
 DBCSR| MPI: Number of processes                                             216
 DBCSR| OMP: Current number of threads                                         4
 DBCSR| OMP: Max number of threads                                             4
 DBCSR| Split modifier for TAS multiplication algorithm                  1.0E+00 (U)


  **** **** ******  **  PROGRAM STARTED AT               2025-03-29 04:45:18.807
 ***** ** ***  *** **   PROGRAM STARTED ON                          i01r10c02s05
 **    ****   ******    PROGRAM STARTED BY                               di38fab
 ***** **    ** ** **   PROGRAM PROCESS ID                                416649
  **** **  *******  **  PROGRAM STARTED IN /hppfs/scratch/04/di38fab/07_MOL_non_
                                           aug/05_MOL_non_aug/05_MOL/aUKBqsEOTmq
                                           69kFe5R_nOg/5k_set_final_qzvp/TIRMOX/
                                           QZVPP/GW+BSE

 CP2K| version string:                 CP2K version 2025.1 (Development Version)
 CP2K| source code revision number:                                  git:d2e611a
 CP2K| cp2kflags: omp libint fftw3 libxc parallel scalapack max_contr=4         
 CP2K| is freely available from                            https://www.cp2k.org/
 CP2K| Program compiled at                       Thu 06 Mar 2025 05:09:20 PM CET
 CP2K| Program compiled on                                               login02
 CP2K| Program compiled for                                        Supermuc-foss
 CP2K| Data directory path                  /hppfs/work/pn36zo/di38fab/cp2k/data
 CP2K| Input file name                                                    GW.inp

 GLOBAL| Force Environment number                                              1
 GLOBAL| Basis set file name            /hppfs/scratch/04/di38fab/04_TMD/BASIS_A
 GLOBAL| Potential file name            /hppfs/work/pn36zo/di38fab/cp2k/data/ALL
 GLOBAL| MM Potential file name                                     MM_POTENTIAL
 GLOBAL| Coordinate file name                                      __STD_INPUT__
 GLOBAL| Method name                                                        CP2K
 GLOBAL| Project name                                                       MoS2
 GLOBAL| Run type                                                         ENERGY
 GLOBAL| FFT library                                                       FFTW3
 GLOBAL| Diagonalization library                                       ScaLAPACK
 GLOBAL| DGEMM library                                                      BLAS
 GLOBAL| Orthonormality check for eigenvectors                          DISABLED
 GLOBAL| Matrix multiplication library                                 ScaLAPACK
 GLOBAL| All-to-all communication in single precision                          F
 GLOBAL| FFTs using library dependent lengths                                  F
 GLOBAL| Grid backend                                                       AUTO
 GLOBAL| Global print level                                               MEDIUM
 GLOBAL| MPI I/O enabled                                                       T
 GLOBAL| Total number of message passing processes                           216
 GLOBAL| Number of threads for this process                                    4
 GLOBAL| This output is from process                                           0
 GLOBAL| OpenMP stack size per thread (OMP_STACKSIZE)                    default
 GLOBAL| CPU model name             Intel(R) Xeon(R) Platinum 8174 CPU @ 3.10GHz

 MEMORY| system memory details [Kb]
 MEMORY|                        rank 0           min           max       average
 MEMORY| MemTotal             98436660      98436648      98436736      98436670
 MEMORY| MemFree              84042528      83765724      84843144      84119179
 MEMORY| Buffers                     0             0             0             0
 MEMORY| Cached                2398684       2383908       2618052       2418396
 MEMORY| Slab                  1207044       1109520       1255984       1220818
 MEMORY| SReclaimable           269688        254516        290544        276117
 MEMORY| MemLikelyFree        86710900      86578228      87514336      86813692


 *** Fundamental physical constants (SI units) ***

 *** Literature: B. J. Mohr and B. N. Taylor,
 ***             CODATA recommended values of the fundamental physical
 ***             constants: 2006, Web Version 5.1
 ***             http://physics.nist.gov/constants

 Speed of light in vacuum [m/s]                             2.99792458000000E+08
 Magnetic constant or permeability of vacuum [N/A**2]       1.25663706143592E-06
 Electric constant or permittivity of vacuum [F/m]          8.85418781762039E-12
 Planck constant (h) [J*s]                                  6.62606896000000E-34
 Planck constant (h-bar) [J*s]                              1.05457162825177E-34
 Elementary charge [C]                                      1.60217648700000E-19
 Electron mass [kg]                                         9.10938215000000E-31
 Electron g factor [ ]                                     -2.00231930436220E+00
 Proton mass [kg]                                           1.67262163700000E-27
 Fine-structure constant                                    7.29735253760000E-03
 Rydberg constant [1/m]                                     1.09737315685270E+07
 Avogadro constant [1/mol]                                  6.02214179000000E+23
 Boltzmann constant [J/K]                                   1.38065040000000E-23
 Atomic mass unit [kg]                                      1.66053878200000E-27
 Bohr radius [m]                                            5.29177208590000E-11

 *** Conversion factors ***

 [u] -> [a.u.]                                              1.82288848426455E+03
 [Angstrom] -> [Bohr] = [a.u.]                              1.88972613288564E+00
 [a.u.] = [Bohr] -> [Angstrom]                              5.29177208590000E-01
 [a.u.] -> [s]                                              2.41888432650478E-17
 [a.u.] -> [fs]                                             2.41888432650478E-02
 [a.u.] -> [J]                                              4.35974393937059E-18
 [a.u.] -> [N]                                              8.23872205491840E-08
 [a.u.] -> [K]                                              3.15774647902944E+05
 [a.u.] -> [kJ/mol]                                         2.62549961709828E+03
 [a.u.] -> [kcal/mol]                                       6.27509468713739E+02
 [a.u.] -> [Pa]                                             2.94210107994716E+13
 [a.u.] -> [bar]                                            2.94210107994716E+08
 [a.u.] -> [atm]                                            2.90362800883016E+08
 [a.u.] -> [eV]                                             2.72113838565563E+01
 [a.u.] -> [Hz]                                             6.57968392072181E+15
 [a.u.] -> [1/cm] (wave numbers)                            2.19474631370540E+05
 [a.u./Bohr**2] -> [1/cm]                                   5.14048714338585E+03
 

 CELL_TOP| Volume [angstrom^3]:                                     27000.000000
 CELL_TOP| Vector a [angstrom    30.000     0.000     0.000   |a| =    30.000000
 CELL_TOP| Vector b [angstrom     0.000    30.000     0.000   |b| =    30.000000
 CELL_TOP| Vector c [angstrom     0.000     0.000    30.000   |c| =    30.000000
 CELL_TOP| Angle (b,c), alpha [degree]:                                90.000000
 CELL_TOP| Angle (a,c), beta  [degree]:                                90.000000
 CELL_TOP| Angle (a,b), gamma [degree]:                                90.000000
 CELL_TOP| Numerically orthorhombic:                                         YES
 CELL_TOP| Periodicity                                                      NONE

 GENERATE|  Preliminary Number of Bonds generated:                             0
 GENERATE|  Achieved consistency in connectivity generation.

 CELL| Volume [angstrom^3]:                                         27000.000000
 CELL| Vector a [angstrom]:      30.000     0.000     0.000   |a| =    30.000000
 CELL| Vector b [angstrom]:       0.000    30.000     0.000   |b| =    30.000000
 CELL| Vector c [angstrom]:       0.000     0.000    30.000   |c| =    30.000000
 CELL| Angle (b,c), alpha [degree]:                                    90.000000
 CELL| Angle (a,c), beta  [degree]:                                    90.000000
 CELL| Angle (a,b), gamma [degree]:                                    90.000000
 CELL| Numerically orthorhombic:                                             YES
 CELL| Periodicity                                                          NONE

 CELL_REF| Volume [angstrom^3]:                                     27000.000000
 CELL_REF| Vector a [angstrom    30.000     0.000     0.000   |a| =    30.000000
 CELL_REF| Vector b [angstrom     0.000    30.000     0.000   |b| =    30.000000
 CELL_REF| Vector c [angstrom     0.000     0.000    30.000   |c| =    30.000000
 CELL_REF| Angle (b,c), alpha [degree]:                                90.000000
 CELL_REF| Angle (a,c), beta  [degree]:                                90.000000
 CELL_REF| Angle (a,b), gamma [degree]:                                90.000000
 CELL_REF| Numerically orthorhombic:                                         YES
 CELL_REF| Periodicity                                                      NONE

 *******************************************************************************
 *******************************************************************************
 **                                                                           **
 **     #####                         ##              ##                      **
 **    ##   ##            ##          ##              ##                      **
 **   ##     ##                       ##            ######                    **
 **   ##     ##  ##   ##  ##   #####  ##  ##   ####   ##    #####    #####    **
 **   ##     ##  ##   ##  ##  ##      ## ##   ##      ##   ##   ##  ##   ##   **
 **   ##  ## ##  ##   ##  ##  ##      ####     ###    ##   ######   ######    **
 **    ##  ###   ##   ##  ##  ##      ## ##      ##   ##   ##       ##        **
 **     #######   #####   ##   #####  ##  ##  ####    ##    #####   ##        **
 **           ##                                                    ##        **
 **                                                                           **
 **                                                ... make the atoms dance   **
 **                                                                           **
 **            Copyright (C) by CP2K developers group (2000-2025)             **
 **                      J. Chem. Phys. 152, 194103 (2020)                    **
 **                                                                           **
 *******************************************************************************

 DFT| Spin restricted Kohn-Sham (RKS) calculation                            RKS
 DFT| Multiplicity                                                             1
 DFT| Number of spin states                                                    1
 DFT| Charge                                                                   0
 DFT| Self-interaction correction (SIC)                                       NO
 DFT| Cutoffs: density                                              1.000000E-10
 DFT|          gradient                                             1.000000E-10
 DFT|          tau                                                  1.000000E-10
 DFT|          cutoff_smoothing_range                               0.000000E+00
 DFT| XC density smoothing                                                  NONE
 DFT| XC derivatives                                                          PW

 FUNCTIONAL| PBE:
 FUNCTIONAL| J.P.Perdew, K.Burke, M.Ernzerhof, Phys. Rev. Letter, vol. 77, n 18,
 FUNCTIONAL|  pp. 3865-3868, (1996)sx=0.750sc=1.000{spin unpolarized}           


 QS| Method:                                                                GAPW
 QS| Density plane wave grid type                        NON-SPHERICAL FULLSPACE
 QS| Number of grid levels:                                                    4
 QS| Density cutoff [a.u.]:                                                250.0
 QS| Multi grid cutoff [a.u.]: 1) grid level                               250.0
 QS|                           2) grid level                                83.3
 QS|                           3) grid level                                27.8
 QS|                           4) grid level                                 9.3
 QS| Grid level progression factor:                                          3.0
 QS| Relative density cutoff [a.u.]:                                        50.0
 QS| Interaction thresholds: eps_pgf_orb:                                1.0E-12
 QS|                         eps_filter_matrix:                          0.0E+00
 QS|                         eps_core_charge:                            1.0E-14
 QS|                         eps_rho_gspace:                             1.0E-12
 QS|                         eps_rho_rspace:                             1.0E-12
 QS|                         eps_gvg_rspace:                             1.0E-06
 QS|                         eps_ppl:                                    1.0E-02
 QS|                         eps_ppnl:                                   1.0E-08
 QS| GAPW|      One center basis from orbital basis primitives
 QS| GAPW|                   eps_fit:                                    1.0E-04
 QS| GAPW|                   eps_iso:                                    1.0E-12
 QS| GAPW|                   eps_svd:                                    1.0E-08
 QS| GAPW|                   eps_cpc:                                    1.0E-12
 QS| GAPW|   atom-r-grid: quadrature:                                     GC_LOG
 QS| GAPW|      atom-s-grid:  max l :                                          8
 QS| GAPW|      max_l_rho0 :                                                   2


 ATOMIC KIND INFORMATION

  1. Atomic kind: N                                     Number of atoms:       3

     Orbital Basis Set                                       QZVPP-MOLOPT-GGA-ae

       Number of orbital shell sets:                                           3
       Number of orbital shells:                                              17
       Number of primitive Cartesian functions:                               17
       Number of Cartesian basis functions:                                   72
       Number of spherical basis functions:                                   57
       Norm type:                                                              2

       Normalised Cartesian orbitals:

                        Set   Shell   Orbital            Exponent    Coefficient

                          1       1    1s                3.078975       0.471387
                                                         0.958725       0.329427
                                                         0.342396       0.076840
                                                         0.116527       0.020840

                          1       2    2s                3.078975      -1.984655
                                                         0.958725       0.530711
                                                         0.342396      -0.223153
                                                         0.116527       0.138394

                          1       3    3s                3.078975      -0.480624
                                                         0.958725      -0.269073
                                                         0.342396       0.254041
                                                         0.116527       0.074304

                          1       4    4s                3.078975       1.789697
                                                         0.958725      -0.449645
                                                         0.342396      -0.246057
                                                         0.116527       0.183258

                          1       5    2px               3.078975       1.131168
                                                         0.958725       0.492999
                                                         0.342396       0.209759
                                                         0.116527       0.005234
                          1       5    2py               3.078975       1.131168
                                                         0.958725       0.492999
                                                         0.342396       0.209759
                                                         0.116527       0.005234
                          1       5    2pz               3.078975       1.131168
                                                         0.958725       0.492999
                                                         0.342396       0.209759
                                                         0.116527       0.005234

                          1       6    3px               3.078975       1.567373
                                                         0.958725      -1.149685
                                                         0.342396       0.140557
                                                         0.116527       0.082729
                          1       6    3py               3.078975       1.567373
                                                         0.958725      -1.149685
                                                         0.342396       0.140557
                                                         0.116527       0.082729
                          1       6    3pz               3.078975       1.567373
                                                         0.958725      -1.149685
                                                         0.342396       0.140557
                                                         0.116527       0.082729

                          1       7    4px               3.078975      -2.195592
                                                         0.958725       1.012184
                                                         0.342396      -0.170775
                                                         0.116527       0.103641
                          1       7    4py               3.078975      -2.195592
                                                         0.958725       1.012184
                                                         0.342396      -0.170775
                                                         0.116527       0.103641
                          1       7    4pz               3.078975      -2.195592
                                                         0.958725       1.012184
                                                         0.342396      -0.170775
                                                         0.116527       0.103641

                          1       8    3dx2              3.078975       6.708179
                                                         0.958725       0.705638
                                                         0.342396      -0.004195
                                                         0.116527       0.012825
                          1       8    3dxy              3.078975      11.618907
                                                         0.958725       1.222201
                                                         0.342396      -0.007266
                                                         0.116527       0.022213
                          1       8    3dxz              3.078975      11.618907
                                                         0.958725       1.222201
                                                         0.342396      -0.007266
                                                         0.116527       0.022213
                          1       8    3dy2              3.078975       6.708179
                                                         0.958725       0.705638
                                                         0.342396      -0.004195
                                                         0.116527       0.012825
                          1       8    3dyz              3.078975      11.618907
                                                         0.958725       1.222201
                                                         0.342396      -0.007266
                                                         0.116527       0.022213
                          1       8    3dz2              3.078975       6.708179
                                                         0.958725       0.705638
                                                         0.342396      -0.004195
                                                         0.116527       0.012825

                          1       9    4dx2              3.078975     -10.578944
                                                         0.958725       1.765132
                                                         0.342396       0.012917
                                                         0.116527      -0.002345
                          1       9    4dxy              3.078975     -18.323269
                                                         0.958725       3.057299
                                                         0.342396       0.022374
                                                         0.116527      -0.004062
                          1       9    4dxz              3.078975     -18.323269
                                                         0.958725       3.057299
                                                         0.342396       0.022374
                                                         0.116527      -0.004062
                          1       9    4dy2              3.078975     -10.578944
                                                         0.958725       1.765132
                                                         0.342396       0.012917
                                                         0.116527      -0.002345
                          1       9    4dyz              3.078975     -18.323269
                                                         0.958725       3.057299
                                                         0.342396       0.022374
                                                         0.116527      -0.004062
                          1       9    4dz2              3.078975     -10.578944
                                                         0.958725       1.765132
                                                         0.342396       0.012917
                                                         0.116527      -0.002345

                          1      10    5dx2              3.078975       1.870495
                                                         0.958725       0.092277
                                                         0.342396       0.268667
                                                         0.116527      -0.011475
                          1      10    5dxy              3.078975       3.239793
                                                         0.958725       0.159828
                                                         0.342396       0.465344
                                                         0.116527      -0.019875
                          1      10    5dxz              3.078975       3.239793
                                                         0.958725       0.159828
                                                         0.342396       0.465344
                                                         0.116527      -0.019875
                          1      10    5dy2              3.078975       1.870495
                                                         0.958725       0.092277
                                                         0.342396       0.268667
                                                         0.116527      -0.011475
                          1      10    5dyz              3.078975       3.239793
                                                         0.958725       0.159828
                                                         0.342396       0.465344
                                                         0.116527      -0.019875
                          1      10    5dz2              3.078975       1.870495
                                                         0.958725       0.092277
                                                         0.342396       0.268667
                                                         0.116527      -0.011475

                          1      11    4fx3              3.078975       9.663284
                                                         0.958725       0.743501
                                                         0.342396       0.018818
                                                         0.116527       0.000449
                          1      11    4fx2y             3.078975      21.607761
                                                         0.958725       1.662520
                                                         0.342396       0.042079
                                                         0.116527       0.001004
                          1      11    4fx2z             3.078975      21.607761
                                                         0.958725       1.662520
                                                         0.342396       0.042079
                                                         0.116527       0.001004
                          1      11    4fxy2             3.078975      21.607761
                                                         0.958725       1.662520
                                                         0.342396       0.042079
                                                         0.116527       0.001004
                          1      11    4fxyz             3.078975      37.425739
                                                         0.958725       2.879568
                                                         0.342396       0.072882
                                                         0.116527       0.001739
                          1      11    4fxz2             3.078975      21.607761
                                                         0.958725       1.662520
                                                         0.342396       0.042079
                                                         0.116527       0.001004
                          1      11    4fy3              3.078975       9.663284
                                                         0.958725       0.743501
                                                         0.342396       0.018818
                                                         0.116527       0.000449
                          1      11    4fy2z             3.078975      21.607761
                                                         0.958725       1.662520
                                                         0.342396       0.042079
                                                         0.116527       0.001004
                          1      11    4fyz2             3.078975      21.607761
                                                         0.958725       1.662520
                                                         0.342396       0.042079
                                                         0.116527       0.001004
                          1      11    4fz3              3.078975       9.663284
                                                         0.958725       0.743501
                                                         0.342396       0.018818
                                                         0.116527       0.000449

                          1      12    5fx3              3.078975     -12.306115
                                                         0.958725       0.615643
                                                         0.342396       0.096113
                                                         0.116527      -0.003385
                          1      12    5fx2y             3.078975     -27.517309
                                                         0.958725       1.376620
                                                         0.342396       0.214914
                                                         0.116527      -0.007569
                          1      12    5fx2z             3.078975     -27.517309
                                                         0.958725       1.376620
                                                         0.342396       0.214914
                                                         0.116527      -0.007569
                          1      12    5fxy2             3.078975     -27.517309
                                                         0.958725       1.376620
                                                         0.342396       0.214914
                                                         0.116527      -0.007569
                          1      12    5fxyz             3.078975     -47.661377
                                                         0.958725       2.384376
                                                         0.342396       0.372243
                                                         0.116527      -0.013110
                          1      12    5fxz2             3.078975     -27.517309
                                                         0.958725       1.376620
                                                         0.342396       0.214914
                                                         0.116527      -0.007569
                          1      12    5fy3              3.078975     -12.306115
                                                         0.958725       0.615643
                                                         0.342396       0.096113
                                                         0.116527      -0.003385
                          1      12    5fy2z             3.078975     -27.517309
                                                         0.958725       1.376620
                                                         0.342396       0.214914
                                                         0.116527      -0.007569
                          1      12    5fyz2             3.078975     -27.517309
                                                         0.958725       1.376620
                                                         0.342396       0.214914
                                                         0.116527      -0.007569
                          1      12    5fz3              3.078975     -12.306115
                                                         0.958725       0.615643
                                                         0.342396       0.096113
                                                         0.116527      -0.003385

                          1      13    5gx4              3.078975      14.038179
                                                         0.958725       0.597037
                                                         0.342396       0.001828
                                                         0.116527       0.000070
                          1      13    5gx3y             3.078975      37.141531
                                                         0.958725       1.579612
                                                         0.342396       0.004837
                                                         0.116527       0.000185
                          1      13    5gx3z             3.078975      37.141531
                                                         0.958725       1.579612
                                                         0.342396       0.004837
                                                         0.116527       0.000185
                          1      13    5gx2y2            3.078975      47.949511
                                                         0.958725       2.039270
                                                         0.342396       0.006245
                                                         0.116527       0.000239
                          1      13    5gx2yz            3.078975      83.050989
                                                         0.958725       3.532119
                                                         0.342396       0.010817
                                                         0.116527       0.000415
                          1      13    5gx2z2            3.078975      47.949511
                                                         0.958725       2.039270
                                                         0.342396       0.006245
                                                         0.116527       0.000239
                          1      13    5gxy3             3.078975      37.141531
                                                         0.958725       1.579612
                                                         0.342396       0.004837
                                                         0.116527       0.000185
                          1      13    5gxy2z            3.078975      83.050989
                                                         0.958725       3.532119
                                                         0.342396       0.010817
                                                         0.116527       0.000415
                          1      13    5gxyz2            3.078975      83.050989
                                                         0.958725       3.532119
                                                         0.342396       0.010817
                                                         0.116527       0.000415
                          1      13    5gxz3             3.078975      37.141531
                                                         0.958725       1.579612
                                                         0.342396       0.004837
                                                         0.116527       0.000185
                          1      13    5gy4              3.078975      14.038179
                                                         0.958725       0.597037
                                                         0.342396       0.001828
                                                         0.116527       0.000070
                          1      13    5gy3z             3.078975      37.141531
                                                         0.958725       1.579612
                                                         0.342396       0.004837
                                                         0.116527       0.000185
                          1      13    5gy2z2            3.078975      47.949511
                                                         0.958725       2.039270
                                                         0.342396       0.006245
                                                         0.116527       0.000239
                          1      13    5gyz3             3.078975      37.141531
                                                         0.958725       1.579612
                                                         0.342396       0.004837
                                                         0.116527       0.000185
                          1      13    5gz4              3.078975      14.038179
                                                         0.958725       0.597037
                                                         0.342396       0.001828
                                                         0.116527       0.000070

                          2       1    1s              150.054989      -2.526131
                                                        35.436137       9.342415
                                                        11.100778       1.083351
                                                         4.398041      -0.233582
                                                         1.856393       0.014287

                          2       2    2s              150.054989       1.065362
                                                        35.436137      -0.346408
                                                        11.100778       1.604432
                                                         4.398041       1.225545
                                                         1.856393       0.149961

                          2       3    2px             150.054989      -4.969176
                                                        35.436137      -5.527181
                                                        11.100778      -7.063688
                                                         4.398041      -2.785766
                                                         1.856393      -1.724211
                          2       3    2py             150.054989      -4.969176
                                                        35.436137      -5.527181
                                                        11.100778      -7.063688
                                                         4.398041      -2.785766
                                                         1.856393      -1.724211
                          2       3    2pz             150.054989      -4.969176
                                                        35.436137      -5.527181
                                                        11.100778      -7.063688
                                                         4.398041      -2.785766
                                                         1.856393      -1.724211

                          3       1    1s            90726.878012      -0.218783
                                                     13590.341075       1.380048
                                                      3092.944603       1.488896
                                                       875.922362       3.287868
                                                       285.804692       3.688593
                                                       103.111342       5.825292
                                                        40.167480       2.629499
                                                        16.675305       3.229475

     RI Auxiliary Basis Set                                    aug-cc-pV5Z-OPTRI

       Number of orbital shell sets:                                          22
       Number of orbital shells:                                              22
       Number of primitive Cartesian functions:                               22
       Number of Cartesian basis functions:                                  188
       Number of spherical basis functions:                                  122
       Norm type:                                                              2

       Normalised Cartesian orbitals:

                        Set   Shell   Orbital            Exponent    Coefficient

                          1       1    1gx4              0.134828       0.004501
                          1       1    1gx3y             0.134828       0.011909
                          1       1    1gx3z             0.134828       0.011909
                          1       1    1gx2y2            0.134828       0.015375
                          1       1    1gx2yz            0.134828       0.026630
                          1       1    1gx2z2            0.134828       0.015375
                          1       1    1gxy3             0.134828       0.011909
                          1       1    1gxy2z            0.134828       0.026630
                          1       1    1gxyz2            0.134828       0.026630
                          1       1    1gxz3             0.134828       0.011909
                          1       1    1gy4              0.134828       0.004501
                          1       1    1gy3z             0.134828       0.011909
                          1       1    1gy2z2            0.134828       0.015375
                          1       1    1gyz3             0.134828       0.011909
                          1       1    1gz4              0.134828       0.004501

                          2       1    1px               0.159639       0.143835
                          2       1    1py               0.159639       0.143835
                          2       1    1pz               0.159639       0.143835

                          3       1    1s                0.209162       0.220431

                          4       1    1px               0.436875       0.506275
                          4       1    1py               0.436875       0.506275
                          4       1    1pz               0.436875       0.506275

                          5       1    1hx5              0.527568       0.092843
                          5       1    1hx4y             0.527568       0.278529
                          5       1    1hx4z             0.527568       0.278529
                          5       1    1hx3y2            0.527568       0.425460
                          5       1    1hx3yz            0.527568       0.736918
                          5       1    1hx3z2            0.527568       0.425460
                          5       1    1hx2y3            0.527568       0.425460
                          5       1    1hx2y2z           0.527568       0.951358
                          5       1    1hx2yz2           0.527568       0.951358
                          5       1    1hx2z3            0.527568       0.425460
                          5       1    1hxy4             0.527568       0.278529
                          5       1    1hxy3z            0.527568       0.736918
                          5       1    1hxy2z2           0.527568       0.951358
                          5       1    1hxyz3            0.527568       0.736918
                          5       1    1hxz4             0.527568       0.278529
                          5       1    1hy5              0.527568       0.092843
                          5       1    1hy4z             0.527568       0.278529
                          5       1    1hy3z2            0.527568       0.425460
                          5       1    1hy2z3            0.527568       0.425460
                          5       1    1hyz4             0.527568       0.278529
                          5       1    1hz5              0.527568       0.092843

                          6       1    1s                0.530900       0.443271

                          7       1    1fx3              0.738473       0.744230
                          7       1    1fx2y             0.738473       1.664150
                          7       1    1fx2z             0.738473       1.664150
                          7       1    1fxy2             0.738473       1.664150
                          7       1    1fxyz             0.738473       2.882392
                          7       1    1fxz2             0.738473       1.664150
                          7       1    1fy3              0.738473       0.744230
                          7       1    1fy2z             0.738473       1.664150
                          7       1    1fyz2             0.738473       1.664150
                          7       1    1fz3              0.738473       0.744230

                          8       1    1px               1.004026       1.432588
                          8       1    1py               1.004026       1.432588
                          8       1    1pz               1.004026       1.432588

                          9       1    1dx2              1.119820       2.006406
                          9       1    1dxy              1.119820       3.475197
                          9       1    1dxz              1.119820       3.475197
                          9       1    1dy2              1.119820       2.006406
                          9       1    1dyz              1.119820       3.475197
                          9       1    1dz2              1.119820       2.006406

                         10       1    1s                1.393963       0.914321

                         11       1    1gx4              1.404119       2.830064
                         11       1    1gx3y             1.404119       7.487644
                         11       1    1gx3z             1.404119       7.487644
                         11       1    1gx2y2            1.404119       9.666507
                         11       1    1gx2yz            1.404119      16.742882
                         11       1    1gx2z2            1.404119       9.666507
                         11       1    1gxy3             1.404119       7.487644
                         11       1    1gxy2z            1.404119      16.742882
                         11       1    1gxyz2            1.404119      16.742882
                         11       1    1gxz3             1.404119       7.487644
                         11       1    1gy4              1.404119       2.830064
                         11       1    1gy3z             1.404119       7.487644
                         11       1    1gy2z2            1.404119       9.666507
                         11       1    1gyz3             1.404119       7.487644
                         11       1    1gz4              1.404119       2.830064

                         12       1    1fx3              1.802390       5.541332
                         12       1    1fx2y             1.802390      12.390795
                         12       1    1fx2z             1.802390      12.390795
                         12       1    1fxy2             1.802390      12.390795
                         12       1    1fxyz             1.802390      21.461487
                         12       1    1fxz2             1.802390      12.390795
                         12       1    1fy3              1.802390       5.541332
                         12       1    1fy2z             1.802390      12.390795
                         12       1    1fyz2             1.802390      12.390795
                         12       1    1fz3              1.802390       5.541332

                         13       1    1ix6              1.941471       5.384789
                         13       1    1ix5y             1.941471      17.859326
                         13       1    1ix5z             1.941471      17.859326
                         13       1    1ix4y2            1.941471      30.933260
                         13       1    1ix4yz            1.941471      53.577978
                         13       1    1ix4z2            1.941471      30.933260
                         13       1    1ix3y3            1.941471      36.600727
                         13       1    1ix3y2z           1.941471      81.841714
                         13       1    1ix3yz2           1.941471      81.841714
                         13       1    1ix3z3            1.941471      36.600727
                         13       1    1ix2y4            1.941471      30.933260
                         13       1    1ix2y3z           1.941471      81.841714
                         13       1    1ix2y2z2          1.941471     105.657198
                         13       1    1ix2yz3           1.941471      81.841714
                         13       1    1ix2z4            1.941471      30.933260
                         13       1    1ixy5             1.941471      17.859326
                         13       1    1ixy4z            1.941471      53.577978
                         13       1    1ixy3z2           1.941471      81.841714
                         13       1    1ixy2z3           1.941471      81.841714
                         13       1    1ixyz4            1.941471      53.577978
                         13       1    1ixz5             1.941471      17.859326
                         13       1    1iy6              1.941471       5.384789
                         13       1    1iy5z             1.941471      17.859326
                         13       1    1iy4z2            1.941471      30.933260
                         13       1    1iy3z3            1.941471      36.600727
                         13       1    1iy2z4            1.941471      30.933260
                         13       1    1iyz5             1.941471      17.859326
                         13       1    1iz6              1.941471       5.384789

                         14       1    1px               2.643998       4.805809
                         14       1    1py               2.643998       4.805809
                         14       1    1pz               2.643998       4.805809

                         15       1    1dx2              3.091394      11.862592
                         15       1    1dxy              3.091394      20.546612
                         15       1    1dxz              3.091394      20.546612
                         15       1    1dy2              3.091394      11.862592
                         15       1    1dyz              3.091394      20.546612
                         15       1    1dz2              3.091394      11.862592

                         16       1    1hx5              3.455251      41.725627
                         16       1    1hx4y             3.455251     125.176881
                         16       1    1hx4z             3.455251     125.176881
                         16       1    1hx3y2            3.455251     191.210844
                         16       1    1hx3yz            3.455251     331.186896
                         16       1    1hx3z2            3.455251     191.210844
                         16       1    1hx2y3            3.455251     191.210844
                         16       1    1hx2y2z           3.455251     427.560445
                         16       1    1hx2yz2           3.455251     427.560445
                         16       1    1hx2z3            3.455251     191.210844
                         16       1    1hxy4             3.455251     125.176881
                         16       1    1hxy3z            3.455251     331.186896
                         16       1    1hxy2z2           3.455251     427.560445
                         16       1    1hxyz3            3.455251     331.186896
                         16       1    1hxz4             3.455251     125.176881
                         16       1    1hy5              3.455251      41.725627
                         16       1    1hy4z             3.455251     125.176881
                         16       1    1hy3z2            3.455251     191.210844
                         16       1    1hy2z3            3.455251     191.210844
                         16       1    1hyz4             3.455251     125.176881
                         16       1    1hz5              3.455251      41.725627

                         17       1    1gx4              5.019491      94.026343
                         17       1    1gx3y             5.019491     248.770320
                         17       1    1gx3z             5.019491     248.770320
                         17       1    1gx2y2            5.019491     321.161102
                         17       1    1gx2yz            5.019491     556.267347
                         17       1    1gx2z2            5.019491     321.161102
                         17       1    1gxy3             5.019491     248.770320
                         17       1    1gxy2z            5.019491     556.267347
                         17       1    1gxyz2            5.019491     556.267347
                         17       1    1gxz3             5.019491     248.770320
                         17       1    1gy4              5.019491      94.026343
                         17       1    1gy3z             5.019491     248.770320
                         17       1    1gy2z2            5.019491     321.161102
                         17       1    1gyz3             5.019491     248.770320
                         17       1    1gz4              5.019491      94.026343

                         18       1    1s                6.323282       2.841954

                         19       1    1px               6.613928      15.118699
                         19       1    1py               6.613928      15.118699
                         19       1    1pz               6.613928      15.118699

                         20       1    1dx2              6.959399      49.080615
                         20       1    1dxy              6.959399      85.010119
                         20       1    1dxz              6.959399      85.010119
                         20       1    1dy2              6.959399      49.080615
                         20       1    1dyz              6.959399      85.010119
                         20       1    1dz2              6.959399      49.080615

                         21       1    1fx3              7.060014     119.609855
                         21       1    1fx2y             7.060014     267.455767
                         21       1    1fx2z             7.060014     267.455767
                         21       1    1fxy2             7.060014     267.455767
                         21       1    1fxyz             7.060014     463.246977
                         21       1    1fxz2             7.060014     267.455767
                         21       1    1fy3              7.060014     119.609855
                         21       1    1fy2z             7.060014     267.455767
                         21       1    1fyz2             7.060014     267.455767
                         21       1    1fz3              7.060014     119.609855

                         22       1    1dx2             13.517160     156.840783
                         22       1    1dxy             13.517160     271.656205
                         22       1    1dxz             13.517160     271.656205
                         22       1    1dy2             13.517160     156.840783
                         22       1    1dyz             13.517160     271.656205
                         22       1    1dz2             13.517160     156.840783

       Atomic covalent radius [Angstrom]:                                  0.750

       Atomic van der Waals radius [Angstrom]:                             1.550

     The atoms of this atomic kind are PAW atoms (GAPW):
       Hard Gaussian function radius:                                      1.512
       Rho0 radius:                                                        1.512
       Maximum GTO radius used for PAW projector construction:            24.566

     GAPW Soft Basis Set                                QZVPP-MOLOPT-GGA-ae_soft

       Number of orbital shell sets:                                           3
       Number of orbital shells:                                              17
       Number of primitive Cartesian functions:                                5
       Number of Cartesian basis functions:                                   72
       Number of spherical basis functions:                                   57
       Norm type:                                                              2

       Normalised Cartesian orbitals:

                        Set   Shell   Orbital            Exponent    Coefficient

                          1       1    1s                3.078975       0.471387
                                                         0.958725       0.329427
                                                         0.342396       0.076840
                                                         0.116527       0.020840

                          1       2    2s                3.078975      -1.984655
                                                         0.958725       0.530711
                                                         0.342396      -0.223153
                                                         0.116527       0.138394

                          1       3    3s                3.078975      -0.480624
                                                         0.958725      -0.269073
                                                         0.342396       0.254041
                                                         0.116527       0.074304

                          1       4    4s                3.078975       1.789697
                                                         0.958725      -0.449645
                                                         0.342396      -0.246057
                                                         0.116527       0.183258

                          1       5    2px               3.078975       1.131168
                                                         0.958725       0.492999
                                                         0.342396       0.209759
                                                         0.116527       0.005234
                          1       5    2py               3.078975       1.131168
                                                         0.958725       0.492999
                                                         0.342396       0.209759
                                                         0.116527       0.005234
                          1       5    2pz               3.078975       1.131168
                                                         0.958725       0.492999
                                                         0.342396       0.209759
                                                         0.116527       0.005234

                          1       6    3px               3.078975       1.567373
                                                         0.958725      -1.149685
                                                         0.342396       0.140557
                                                         0.116527       0.082729
                          1       6    3py               3.078975       1.567373
                                                         0.958725      -1.149685
                                                         0.342396       0.140557
                                                         0.116527       0.082729
                          1       6    3pz               3.078975       1.567373
                                                         0.958725      -1.149685
                                                         0.342396       0.140557
                                                         0.116527       0.082729

                          1       7    4px               3.078975      -2.195592
                                                         0.958725       1.012184
                                                         0.342396      -0.170775
                                                         0.116527       0.103641
                          1       7    4py               3.078975      -2.195592
                                                         0.958725       1.012184
                                                         0.342396      -0.170775
                                                         0.116527       0.103641
                          1       7    4pz               3.078975      -2.195592
                                                         0.958725       1.012184
                                                         0.342396      -0.170775
                                                         0.116527       0.103641

                          1       8    3dx2              3.078975       6.708179
                                                         0.958725       0.705638
                                                         0.342396      -0.004195
                                                         0.116527       0.012825
                          1       8    3dxy              3.078975      11.618907
                                                         0.958725       1.222201
                                                         0.342396      -0.007266
                                                         0.116527       0.022213
                          1       8    3dxz              3.078975      11.618907
                                                         0.958725       1.222201
                                                         0.342396      -0.007266
                                                         0.116527       0.022213
                          1       8    3dy2              3.078975       6.708179
                                                         0.958725       0.705638
                                                         0.342396      -0.004195
                                                         0.116527       0.012825
                          1       8    3dyz              3.078975      11.618907
                                                         0.958725       1.222201
                                                         0.342396      -0.007266
                                                         0.116527       0.022213
                          1       8    3dz2              3.078975       6.708179
                                                         0.958725       0.705638
                                                         0.342396      -0.004195
                                                         0.116527       0.012825

                          1       9    4dx2              3.078975     -10.578944
                                                         0.958725       1.765132
                                                         0.342396       0.012917
                                                         0.116527      -0.002345
                          1       9    4dxy              3.078975     -18.323269
                                                         0.958725       3.057299
                                                         0.342396       0.022374
                                                         0.116527      -0.004062
                          1       9    4dxz              3.078975     -18.323269
                                                         0.958725       3.057299
                                                         0.342396       0.022374
                                                         0.116527      -0.004062
                          1       9    4dy2              3.078975     -10.578944
                                                         0.958725       1.765132
                                                         0.342396       0.012917
                                                         0.116527      -0.002345
                          1       9    4dyz              3.078975     -18.323269
                                                         0.958725       3.057299
                                                         0.342396       0.022374
                                                         0.116527      -0.004062
                          1       9    4dz2              3.078975     -10.578944
                                                         0.958725       1.765132
                                                         0.342396       0.012917
                                                         0.116527      -0.002345

                          1      10    5dx2              3.078975       1.870495
                                                         0.958725       0.092277
                                                         0.342396       0.268667
                                                         0.116527      -0.011475
                          1      10    5dxy              3.078975       3.239793
                                                         0.958725       0.159828
                                                         0.342396       0.465344
                                                         0.116527      -0.019875
                          1      10    5dxz              3.078975       3.239793
                                                         0.958725       0.159828
                                                         0.342396       0.465344
                                                         0.116527      -0.019875
                          1      10    5dy2              3.078975       1.870495
                                                         0.958725       0.092277
                                                         0.342396       0.268667
                                                         0.116527      -0.011475
                          1      10    5dyz              3.078975       3.239793
                                                         0.958725       0.159828
                                                         0.342396       0.465344
                                                         0.116527      -0.019875
                          1      10    5dz2              3.078975       1.870495
                                                         0.958725       0.092277
                                                         0.342396       0.268667
                                                         0.116527      -0.011475

                          1      11    4fx3              3.078975       9.663284
                                                         0.958725       0.743501
                                                         0.342396       0.018818
                                                         0.116527       0.000449
                          1      11    4fx2y             3.078975      21.607761
                                                         0.958725       1.662520
                                                         0.342396       0.042079
                                                         0.116527       0.001004
                          1      11    4fx2z             3.078975      21.607761
                                                         0.958725       1.662520
                                                         0.342396       0.042079
                                                         0.116527       0.001004
                          1      11    4fxy2             3.078975      21.607761
                                                         0.958725       1.662520
                                                         0.342396       0.042079
                                                         0.116527       0.001004
                          1      11    4fxyz             3.078975      37.425739
                                                         0.958725       2.879568
                                                         0.342396       0.072882
                                                         0.116527       0.001739
                          1      11    4fxz2             3.078975      21.607761
                                                         0.958725       1.662520
                                                         0.342396       0.042079
                                                         0.116527       0.001004
                          1      11    4fy3              3.078975       9.663284
                                                         0.958725       0.743501
                                                         0.342396       0.018818
                                                         0.116527       0.000449
                          1      11    4fy2z             3.078975      21.607761
                                                         0.958725       1.662520
                                                         0.342396       0.042079
                                                         0.116527       0.001004
                          1      11    4fyz2             3.078975      21.607761
                                                         0.958725       1.662520
                                                         0.342396       0.042079
                                                         0.116527       0.001004
                          1      11    4fz3              3.078975       9.663284
                                                         0.958725       0.743501
                                                         0.342396       0.018818
                                                         0.116527       0.000449

                          1      12    5fx3              3.078975     -12.306115
                                                         0.958725       0.615643
                                                         0.342396       0.096113
                                                         0.116527      -0.003385
                          1      12    5fx2y             3.078975     -27.517309
                                                         0.958725       1.376620
                                                         0.342396       0.214914
                                                         0.116527      -0.007569
                          1      12    5fx2z             3.078975     -27.517309
                                                         0.958725       1.376620
                                                         0.342396       0.214914
                                                         0.116527      -0.007569
                          1      12    5fxy2             3.078975     -27.517309
                                                         0.958725       1.376620
                                                         0.342396       0.214914
                                                         0.116527      -0.007569
                          1      12    5fxyz             3.078975     -47.661377
                                                         0.958725       2.384376
                                                         0.342396       0.372243
                                                         0.116527      -0.013110
                          1      12    5fxz2             3.078975     -27.517309
                                                         0.958725       1.376620
                                                         0.342396       0.214914
                                                         0.116527      -0.007569
                          1      12    5fy3              3.078975     -12.306115
                                                         0.958725       0.615643
                                                         0.342396       0.096113
                                                         0.116527      -0.003385
                          1      12    5fy2z             3.078975     -27.517309
                                                         0.958725       1.376620
                                                         0.342396       0.214914
                                                         0.116527      -0.007569
                          1      12    5fyz2             3.078975     -27.517309
                                                         0.958725       1.376620
                                                         0.342396       0.214914
                                                         0.116527      -0.007569
                          1      12    5fz3              3.078975     -12.306115
                                                         0.958725       0.615643
                                                         0.342396       0.096113
                                                         0.116527      -0.003385

                          1      13    5gx4              3.078975      14.038179
                                                         0.958725       0.597037
                                                         0.342396       0.001828
                                                         0.116527       0.000070
                          1      13    5gx3y             3.078975      37.141531
                                                         0.958725       1.579612
                                                         0.342396       0.004837
                                                         0.116527       0.000185
                          1      13    5gx3z             3.078975      37.141531
                                                         0.958725       1.579612
                                                         0.342396       0.004837
                                                         0.116527       0.000185
                          1      13    5gx2y2            3.078975      47.949511
                                                         0.958725       2.039270
                                                         0.342396       0.006245
                                                         0.116527       0.000239
                          1      13    5gx2yz            3.078975      83.050989
                                                         0.958725       3.532119
                                                         0.342396       0.010817
                                                         0.116527       0.000415
                          1      13    5gx2z2            3.078975      47.949511
                                                         0.958725       2.039270
                                                         0.342396       0.006245
                                                         0.116527       0.000239
                          1      13    5gxy3             3.078975      37.141531
                                                         0.958725       1.579612
                                                         0.342396       0.004837
                                                         0.116527       0.000185
                          1      13    5gxy2z            3.078975      83.050989
                                                         0.958725       3.532119
                                                         0.342396       0.010817
                                                         0.116527       0.000415
                          1      13    5gxyz2            3.078975      83.050989
                                                         0.958725       3.532119
                                                         0.342396       0.010817
                                                         0.116527       0.000415
                          1      13    5gxz3             3.078975      37.141531
                                                         0.958725       1.579612
                                                         0.342396       0.004837
                                                         0.116527       0.000185
                          1      13    5gy4              3.078975      14.038179
                                                         0.958725       0.597037
                                                         0.342396       0.001828
                                                         0.116527       0.000070
                          1      13    5gy3z             3.078975      37.141531
                                                         0.958725       1.579612
                                                         0.342396       0.004837
                                                         0.116527       0.000185
                          1      13    5gy2z2            3.078975      47.949511
                                                         0.958725       2.039270
                                                         0.342396       0.006245
                                                         0.116527       0.000239
                          1      13    5gyz3             3.078975      37.141531
                                                         0.958725       1.579612
                                                         0.342396       0.004837
                                                         0.116527       0.000185
                          1      13    5gz4              3.078975      14.038179
                                                         0.958725       0.597037
                                                         0.342396       0.001828
                                                         0.116527       0.000070

                          2       1    1s                1.856393       0.014287

                          2       2    2s                1.856393       0.149961

                          2       3    2px               1.856393      -1.724211
                          2       3    2py               1.856393      -1.724211
                          2       3    2pz               1.856393      -1.724211

                          3       1    1s         

     AE Potential information for                                            ALL

       Description:                                       All-electron potential
                                          Krack, Parrinello, PCCP 2, 2105 (2000)

       Gaussian exponent of the core charge distribution:               5.979100
       Electronic configuration (s p d ...):                           4   3   0

  2. Atomic kind: C                                     Number of atoms:       5

     Orbital Basis Set                                       QZVPP-MOLOPT-GGA-ae

       Number of orbital shell sets:                                           3
       Number of orbital shells:                                              17
       Number of primitive Cartesian functions:                               17
[...]
 https://doi.org/10.1103/PhysRevLett.77.3865


 -------------------------------------------------------------------------------
 -                                                                             -
 -                                T I M I N G                                  -
 -                                                                             -
 -------------------------------------------------------------------------------
 SUBROUTINE                       CALLS  ASD         SELF TIME        TOTAL TIME
                                MAXIMUM       AVERAGE  MAXIMUM  AVERAGE  MAXIMUM
 CP2K                                 1  1.0    0.030    0.053 2191.770 2191.771
 qs_energies                          1  2.0    0.001    0.001 2188.338 2188.541
 scf_env_do_scf                       1  3.0    0.000    0.000 1134.618 1134.625
 scf_env_do_scf_inner_loop          145  4.0    0.004    0.010 1134.618 1134.624
 qs_ks_build_kohn_sham_matrix       146  7.0    0.021    0.024 1071.988 1072.325
 qs_ks_update_qs_env                145  5.0    0.001    0.001 1070.581 1070.917
 rebuild_ks_matrix                  145  6.0    0.000    0.001 1070.561 1070.896
 mp2_main                             1  3.0    0.000    0.001 1050.522 1050.725
 mp2_gpw_main                         1  4.0    0.000    0.001 1048.653 1048.682
 rpa_ri_compute_en                    1  5.0    0.001    0.001 1009.122 1009.125
 rpa_num_int                          1  6.0    0.002    0.002 1007.643 1007.756
 hfx_ks_matrix                      146  8.0    0.006    0.007  903.079  903.258
 integrate_four_center              146  9.0   12.134   14.705  903.066  903.237
 compute_GW_self_energy             100  7.0    0.010    0.013  639.538  645.341
 compute_GW_self_energy_deep        100  8.0  379.616  380.614  637.386  643.189
 integrate_four_center_main         146 10.0    3.878   14.865  497.131  639.961
 integrate_four_center_bin        25274 11.0  493.253  634.357  493.253  634.357
 start_bse_calculation                1  7.0    0.001    0.002  353.873  353.874
 parallel_gemm_fm                   510  8.1    0.001    0.001  331.478  336.773
 parallel_gemm_fm_gemm              510  9.1    0.001    0.001  331.477  336.771
 cp_fm_gemm                         510 10.1  331.476  336.770  331.476  336.770
 cp_fm_syevd                        151  7.0    0.001    0.002  290.577  291.066
 cp_fm_redistribute_end             151  8.0  145.204  290.618  145.466  290.622
 cp_fm_syevd_base                   151  8.0  144.530  289.218  144.530  289.218
 mp_sync                           1241  9.8  178.010  274.491  178.010  274.491
 calc_screening_functions             1 10.0  196.965  211.324  199.018  213.356
 create_hermitian_form_of_ABBA        1  8.0    0.001    0.001  181.535  181.609
 diagonalize_C                        1  8.0    0.002    0.003  160.060  160.082
 cp_fm_power                          2  7.5    0.523    0.537  147.428  147.698
 fft_wrap_pw1pw2                   3057  9.9    0.049    0.064   45.062   45.657
 fft_wrap_pw1pw2_250               2181 11.1    1.517    1.644   42.588   43.123
 mp2_ri_gpw_compute_in                1  5.0    0.020    0.030   39.476   39.482
 fft3d_ps                          3057 11.9   14.382   15.481   38.652   39.392
 mp2_ri_gpw_compute_in_loop           1  6.0    0.000    0.001   39.377   39.387
 prepare_gapw_den                   146  8.0    0.004    0.005   38.267   38.384
 contract_B_L                         4  7.0    0.067    0.075   27.911   37.369
 pw_poisson_solve                   146  8.0    0.854    0.925   36.622   36.654
 qs_rho_update_rho_low              146  5.0    0.002    0.002   33.869   33.873
 mp_sum_d                         14071  7.0   29.772   33.402   29.772   33.402
 mp2_eri_3c_integrate                 1  7.0    0.015    0.020   10.500   33.246
 integrate_set_3c                  3965  8.0    9.775   31.356   10.485   33.228
 mp_cart_create                     922  9.5   23.018   32.492   23.019   32.494
 dbt_pgrid_create_expert             84 10.8    0.000    0.000   22.967   32.430
 calculate_rho_elec                 146  6.0    0.318    0.341   28.161   28.165
 calculate_rho_atom                 584  9.0    4.518   27.450    4.518   27.450
 mp_alltoall_z22v                  3057 13.9   20.787   26.468   20.787   26.468
 calculate_vxc_atom                 146  8.0    0.126    1.716   26.465   26.466
 ps_wavelet_solve                   146  9.0   14.391   20.895   25.849   25.967
 qs_vxc_create                      146  8.0    0.002    0.002   25.304   25.304
 xc_vxc_pw_create                   145  9.0    0.407    0.465   25.302   25.302
 mp_sum_dv                        34570 10.0   24.030   25.044   24.030   25.044
 sum_up_and_integrate               146  8.0    0.002    0.002   24.574   24.678
 integrate_v_rspace                 146  9.0    0.003    0.004   24.512   24.626
 gaVxcgb_GC                         435  9.0    0.712   24.519    0.712   24.519
 mp_sum_l                          1432  7.1   14.410   20.544   14.410   20.544
 integrate_four_center_load         146 10.0    0.001    0.001   14.343   20.487
 hfx_load_balance                     1 11.0    0.000    0.000   14.343   20.487
 hfx_load_balance_range               1 12.0    0.000    0.000   14.317   20.461
 xc_pw_derive                       870 11.0    0.007    0.010   19.134   20.441
 density_rs2pw                      146  7.0    0.008    0.010   18.270   19.826
 mp_alltoall_d54                    146 10.0    7.956   19.723    7.956   19.723
 qs_scf_new_mos                     145  5.0    0.002    0.002   18.831   18.962
 eigensolver_symm                   146  6.0    0.006    0.008   16.769   16.793
 transfer_rs2pw                     731  8.4    0.015    0.029   14.439   15.964
 yz_to_x                           1165 13.2    1.030    1.290   11.579   15.396
 mp_alltoall_d11v                  2624  9.4   12.762   14.982   12.762   14.982
 xc_pw_divergence                   145 10.0    0.003    0.005   12.950   14.190
 potential_pw2rs                    146 10.0    0.030    0.041   13.870   14.008
 transfer_pw2rs                     731 10.6    0.010    0.014   12.904   13.242
 mp_waitany                       38628 11.5   11.203   12.819   11.203   12.819
 grid_collocate_task_list           146  7.0    8.875   12.653    8.875   12.653
 xc_rho_set_and_dset_create         145 10.0    0.316    0.390   11.654   12.349
 x_to_yz                           1308 12.9    1.533    1.751   11.669   12.193
 gspace_mixing                      144  5.0    0.313    0.335   11.484   11.485
 mp_sum_dm                         7596  7.7   10.862   11.195   10.862   11.195
 integrate_vhg0_rspace              146  8.0    1.255    1.356   10.632   10.792
 rs_gather_matrices                 146 10.0    0.016    0.036   10.113   10.681
 grid_integrate_task_list           146 10.0    0.526   10.288    0.526   10.288
 transfer_rs2pw_250                 293 10.0    2.406    2.696    7.928    9.815
 cp_fm_syrk                           3  7.0    8.334    8.492    8.334    8.492
 broyden_mixing                     144  6.0    8.089    8.288    8.339    8.459
 mp_waitall_1                    152530 12.0    6.869    8.274    6.869    8.274
 rpa_num_int_RPA_matrix_operati     100  7.0    0.001    0.003    8.238    8.240
 transfer_pw2rs_250                 293 11.0    2.092    2.605    6.538    7.208
 put_rho0_on_grid                   146  9.0    0.345    0.461    7.027    7.144
 calc_mat_Q                         100  8.0    0.000    0.001    6.895    7.005
 contract_S_to_Q                    100  9.0    0.001    0.001    6.864    6.972
 create_B                             1  8.0    0.000    0.001    6.607    6.708
 calculate_rho_atom_coeff           146  6.0    0.414    0.647    5.707    5.708
 create_A                             1  8.0    0.007    0.008    5.125    5.177
 mp_alltoall_d45                    147 10.0    3.481    4.882    3.481    4.882
 dbt_total                            8  8.0    0.000    0.000    4.724    4.724
 dbt_contract                         4  9.0    0.001    0.001    4.358    4.375
 integrate_four_center_getP         146 10.0    0.160    0.253    3.897    4.329
 powell_optimize                1571220 11.0    3.939    4.116    3.939    4.116
 dbt_tas_multiply                     8 11.5    0.000    0.000    3.832    3.832
 dbt_tas_total                        8 12.5    0.004    0.007    3.831    3.831
 calculate_rho0_atom                584  9.0    3.557    3.830    3.557    3.830
 calc_pair_dist_radii                 1 10.0    1.805    1.855    3.691    3.785
 mp_isendrecv_dv                 125560 12.0    1.367    3.609    1.367    3.609
 transfer_rs2pw_90                  146  9.0    0.493    0.616    2.438    3.318
 dbt_tas_dbm                          8 13.5    0.000    0.000    3.224    3.224
 transfer_rs2pw_30                  146  9.0    1.381    1.452    3.114    3.165
 transfer_pw2rs_30                  146 12.0    1.331    1.448    2.987    3.158
 dbm_multiply                         8 15.5    2.774    3.133    2.774    3.133
 dbt_tas_mm_1N                        6 14.5    0.000    0.000    2.752    3.112
 create_qs_kind_set                   1  2.0    0.000    0.000    2.788    2.788
 read_qs_kind                         4  3.0    1.559    1.589    2.787    2.788
 integrate_four_center_dist_KS      146 10.0    0.112    0.122    2.780    2.784
 transfer_pw2rs_90                  146 12.0    0.556    0.667    2.417    2.713
 qs_energies_init_hamiltonians        1  3.0    0.000    0.000    2.695    2.695
 build_core_hamiltonian_matrix        1  4.0    0.000    0.000    2.684    2.684
 overlap_condnum                      1  5.0    0.000    0.001    2.664    2.682
 Vh_1c_gg_integrals                 146  8.0    0.089    2.279    2.344    2.678
 xc_functional_eval                1015 10.9    0.001    0.005    2.008    2.618
 pbe_lda_eval                      1015 11.9    2.006    2.614    2.006    2.614
 arnoldi_conjugate_gradient           5  6.0    0.052    0.063    2.429    2.429
 fm_general_add_bse                   5 10.2    0.000    0.000    2.307    2.423
 mp_sendrecv_dv                   62780 10.0    2.325    2.408    2.325    2.408
 pw_scatter_p                      1600 12.1    2.090    2.390    2.090    2.390
 rs_grid_zero                       732 11.2    2.103    2.184    2.103    2.184
 cp_fm_cholesky_invert              101  8.0    2.104    2.155    2.104    2.155
 update_ks_atom                     146  8.0    0.263    0.605    1.599    1.976
 pw_gather_p                       1457 11.8    1.611    1.892    1.611    1.892
 cp2k_distribution_to_z_slices      146  9.0    0.673    0.735    1.540    1.885
 abc_contract                      3965  9.0    0.709    1.873    0.709    1.873
 fft_wrap_pw1pw2_90                 292 10.5    0.044    0.067    1.518    1.756
 create_integ_mat                     4  6.0    0.006    0.012    1.464    1.615
 array2fm                             4  7.0    0.000    0.000    1.275    1.596
 dbcsr_sym_matrix_vector_mult      7709  7.0    0.122    0.135    1.348    1.545
 pw_derive                         1308 11.3    1.432    1.541    1.432    1.541
 compute_vec_Sigma_x_minus_vxc_       1  4.0    0.000    0.000    1.446    1.446
 mp_bcast_dm                       4964  9.0    1.336    1.406    1.336    1.406
 copy_dbcsr_to_fm                   192  6.4    0.004    0.005    1.217    1.334
 dbcsr_multiply_generic             222  8.0    0.013    0.014    1.187    1.293
 calculate_dm_sparse                145  6.0    0.001    0.002    1.209    1.290
 cp_dbcsr_plus_fm_fm_t              145  7.0    0.002    0.003    1.206    1.286
 parser_read_line                332724  4.0    0.112    0.120    1.228    1.251
 cp_fm_cholesky_decompose           102  9.0    1.147    1.201    1.147    1.201
 pw_copy                           2185 10.6    1.104    1.195    1.104    1.195
 parser_read_line_low               357  5.0    0.097    0.507    1.116    1.136
 compute_Erpa_by_freq_int           100  8.0    0.002    0.003    1.125    1.126
 dbcsr_complete_redistribute        486  8.4    0.099    0.117    1.046    1.084
 broadcast_input_information        357  6.0    0.239    0.271    1.019    1.079
 cp_fm_uplo_to_full                 104  8.0    0.824    1.072    0.824    1.072
 transfer_pw2rs_10                  146 12.0    0.348    0.390    0.951    1.031
 transfer_rs2pw_10                  146  9.0    0.352    0.377    0.944    0.968
 dbt_tas_estimate_result_nze          4 12.0    0.016    0.021    0.930    0.930
 pw_poisson_set                     147  9.0    0.004    0.005    0.873    0.904
 dbcsr_desymmetrize_deep            194  7.4    0.024    0.032    0.788    0.895
 cp_fm_redistribute_start           151  8.0    0.405    0.612    0.580    0.858
 dbt_copy                            12 10.1    0.000    0.001    0.806    0.856
 mp_bcast_dv                       7860  9.0    0.448    0.846    0.448    0.846
 mp_isend_dm3                      7020 11.5    0.359    0.839    0.359    0.839
 mp_irecv_dm3                      7020 11.5    0.372    0.822    0.372    0.822
 pw_copy_to_array                  1457 11.8    0.601    0.757    0.601    0.757
 multiply_cannon                    222  9.0    0.027    0.029    0.617    0.712
 dbcsr_add_d                      11695  7.0    0.011    0.013    0.106    0.705
 pw_copy_from_array                1600 12.1    0.487    0.693    0.487    0.693
 dbcsr_add_anytype                11695  8.0    0.014    0.091    0.096    0.693
 fm_general_add_bse_4_buf_from_       1 10.0    0.595    0.688    0.595    0.688
 array2fm_info                        4  8.0    0.549    0.666    0.566    0.679
 pw_integral_ab_c1d_c1d_gs          146  9.0    0.475    0.479    0.609    0.668
 cp_fm_symm                         146  7.0    0.638    0.662    0.638    0.662
 multiply_cannon_loop               222 10.0    0.037    0.040    0.545    0.653
 cp_fm_to_fm_submat_general         112 10.1    0.321    0.648    0.321    0.648
 pw_poisson_rebuild                 146  9.0    0.000    0.000    0.621    0.644
 ps_wavelet_create                    1 10.0    0.000    0.000    0.621    0.644
 RS_z_slice_distribution              1 11.0    0.499    0.603    0.621    0.644
 copy_fm_to_dbcsr                   294  8.0    0.001    0.002    0.604    0.635
 mp_alltoall_z11v                   584 13.5    0.600    0.623    0.600    0.623
 dbcsr_rep_row_to_rep_col_vec      7709  8.0    0.041    0.056    0.287    0.623
 array2fm_fill                        4  8.0    0.162    0.237    0.351    0.622
 fft_wrap_pw1pw2_30                 292 10.5    0.008    0.009    0.599    0.620
 mp_isend_dv                      46433 11.9    0.368    0.609    0.368    0.609
 mp_max_i                           770  3.5    0.259    0.607    0.259    0.607
 pw_axpy                           1455  9.3    0.524    0.583    0.524    0.583
 mp_alltoall_i22                    680  9.1    0.427    0.557    0.427    0.557
 dbcsr_col_vec_to_rep_row          7709  8.0    0.055    0.072    0.417    0.551
 hybrid_alltoall_any                638 10.9    0.175    0.199    0.499    0.541
 mp_bcast_am_src                    357  7.0    0.437    0.495    0.473    0.538
 mp_bcast_i_src                    1428  7.0    0.293    0.531    0.293    0.531
 dbt_reshape                          8 11.6    0.125    0.149    0.489    0.515
 fm_general_add_bse_1_setup           5 11.2    0.477    0.515    0.477    0.515
 make_m2s                           444  9.0    0.012    0.013    0.478    0.514
 rs_scatter_matrices                146  7.0    0.002    0.006    0.485    0.498
 dbcsr_finalize                   14787 10.7    0.023    0.151    0.123    0.494
 fm_general_add_bse_4_buf_from_       1 10.0    0.458    0.480    0.458    0.480
 fm_general_add_bse_5_comm_buff       5 11.2    0.000    0.000    0.267    0.474
 communicate_buffer                   5 12.2    0.001    0.001    0.267    0.474
 mult_B_with_W                        1  8.0    0.000    0.000    0.418    0.472
 mp_waitall_2                        50 15.7    0.356    0.437    0.356    0.437
 multiply_cannon_multrec           5472 11.1    0.317    0.430    0.320    0.433
 init_scf_run                         1  3.0    0.000    0.000    0.432    0.432
 dbt_tas_replicate                    8 13.5    0.199    0.239    0.418    0.426
 make_images                        444 10.0    0.060    0.069    0.383    0.416
 mp_wait                            134  9.0    0.189    0.408    0.189    0.408
 yz_to_xz                           292 14.0    0.026    0.029    0.378    0.398
 mp_alltoall_i11v                  1652  9.3    0.390    0.396    0.390    0.396
 mp_sum_iv                          497  9.5    0.258    0.388    0.258    0.388
 mp2_main_alloc_hfx                   1  4.0    0.155    0.358    0.155    0.358
 mp_sum_i                            21  9.7    0.205    0.351    0.205    0.351
 restraint_control                    1  2.0    0.000    0.000    0.204    0.350
 cp_fm_create                       665  7.8    0.273    0.349    0.273    0.349
 qs_init_subsys                       1  2.0    0.012    0.017    0.337    0.338
 array2fm_buffer_send                 4  8.0    0.285    0.327    0.285    0.327
 dbt_communicate_buffer               8 12.6    0.003    0.003    0.305    0.327
 dbt_split_blocks_generic            20  8.8    0.135    0.163    0.311    0.326
 pw_zero                            872 10.3    0.282    0.324    0.282    0.324
 scf_env_initial_rho_setup            1  4.0    0.000    0.000    0.313    0.314
 fft_wrap_pw1pw2_10                 292 10.5    0.003    0.003    0.309    0.313
 ao_to_mo_and_store_B_mult_bse_       9  7.0    0.000    0.000    0.235    0.298
 allocate_matrices_gw                 1  7.0    0.001    0.001    0.177    0.290
 get_vec_sigma_x                      1  8.0    0.001    0.001    0.161    0.280
 vxc_of_r_new                       870  9.0    0.001    0.041    0.007    0.274
 dbt_remap                            8 10.0    0.002    0.002    0.273    0.274
 qs_env_setup                         1  3.0    0.000    0.000    0.258    0.273
 ao_to_mo_and_store_B_mult_gw_1       9  7.0    0.000    0.000    0.245    0.273
 qs_env_rebuild_pw_env                2  3.5    0.000    0.000    0.257    0.272
 pw_env_rebuild                       1  5.0    0.001    0.001    0.257    0.272
 xz_to_yz                           292 11.0    0.017    0.021    0.267    0.270
 Q_trace_and_add_unit_matrix        100  8.0    0.009    0.011    0.218    0.266
 mp_rank_compare                   3057 12.9    0.249    0.263    0.249    0.263
 dbcsr_merge_all                  13117 11.3    0.030    0.175    0.085    0.261
 make_images_data                   444 11.0    0.006    0.008    0.202    0.250
 fm_general_add_bse_3_alloc_buf       5 11.2    0.195    0.246    0.195    0.246
 dbm_reserve_blocks                  68 14.1    0.208    0.230    0.208    0.230
 fm_general_add_bse_6_buffer_to       1 10.0    0.176    0.227    0.176    0.227
 ao_to_mo_and_store_B_E_Ex_gw_1       9  7.0    0.087    0.106    0.196    0.221
 -------------------------------------------------------------------------------

 The number of warnings for this run is : 1
 
 -------------------------------------------------------------------------------
  **** **** ******  **  PROGRAM ENDED AT                 2025-03-29 05:21:51.338
 ***** ** ***  *** **   PROGRAM RAN ON                              i01r10c02s05
 **    ****   ******    PROGRAM RAN BY                                   di38fab
 ***** **    ** ** **   PROGRAM PROCESS ID                                416649
  **** **  *******  **  PROGRAM STOPPED IN /hppfs/scratch/04/di38fab/07_MOL_non_
                                           aug/05_MOL_non_aug/05_MOL/aUKBqsEOTmq
                                           69kFe5R_nOg/5k_set_final_qzvp/TIRMOX/
                                           QZVPP/GW+BSE
