 DBCSR| CPU Multiplication driver                                           BLAS (U)
 DBCSR| Multrec recursion limit                                              512 (U)
 DBCSR| Multiplication stack size                                           1000 (D)
 DBCSR| Maximum elements for images                                    UNLIMITED (U)
 DBCSR| Multiplicative factor virtual images                                   1 (U)
 DBCSR| Use multiplication densification                                       T (D)
 DBCSR| Multiplication size stacks                                             3 (U)
 DBCSR| Use memory pool for CPU allocation                                     F (U)
 DBCSR| Number of 3D layers                                               SINGLE (U)
 DBCSR| Use MPI memory allocation                                              F (U)
 DBCSR| Use RMA algorithm                                                      F (U)
 DBCSR| Use Communication thread                                               T (U)
 DBCSR| Communication thread load                                             75 (D)
 DBCSR| MPI: My process id                                                     0
 DBCSR| MPI: Number of processes                                              48
 DBCSR| OMP: Current number of threads                                         4
 DBCSR| OMP: Max number of threads                                             4
 DBCSR| Split modifier for TAS multiplication algorithm                  1.0E+00 (U)


  **** **** ******  **  PROGRAM STARTED AT               2025-03-26 06:12:57.108
 ***** ** ***  *** **   PROGRAM STARTED ON                          i05r08c02s09
 **    ****   ******    PROGRAM STARTED BY                               di38fab
 ***** **    ** ** **   PROGRAM PROCESS ID                                259277
  **** **  *******  **  PROGRAM STARTED IN /hppfs/scratch/04/di38fab/05_MOL/W4-1
                                           1+ALK/sih4/SZV/GW+BSE/1e-4

 CP2K| version string:                 CP2K version 2025.1 (Development Version)
 CP2K| source code revision number:                                  git:d2e611a
 CP2K| cp2kflags: omp libint fftw3 libxc parallel scalapack max_contr=4         
 CP2K| is freely available from                            https://www.cp2k.org/
 CP2K| Program compiled at                       Thu 06 Mar 2025 05:09:20 PM CET
 CP2K| Program compiled on                                               login02
 CP2K| Program compiled for                                        Supermuc-foss
 CP2K| Data directory path                  /hppfs/work/pn36zo/di38fab/cp2k/data
 CP2K| Input file name                                                    GW.inp

 GLOBAL| Force Environment number                                              1
 GLOBAL| Basis set file name            /hppfs/scratch/04/di38fab/04_TMD/BASIS_A
 GLOBAL| Potential file name            /hppfs/work/pn36zo/di38fab/cp2k/data/ALL
 GLOBAL| MM Potential file name                                     MM_POTENTIAL
 GLOBAL| Coordinate file name                                      __STD_INPUT__
 GLOBAL| Method name                                                        CP2K
 GLOBAL| Project name                                                       MoS2
 GLOBAL| Run type                                                         ENERGY
 GLOBAL| FFT library                                                       FFTW3
 GLOBAL| Diagonalization library                                       ScaLAPACK
 GLOBAL| DGEMM library                                                      BLAS
 GLOBAL| Orthonormality check for eigenvectors                          DISABLED
 GLOBAL| Matrix multiplication library                                 ScaLAPACK
 GLOBAL| All-to-all communication in single precision                          F
 GLOBAL| FFTs using library dependent lengths                                  F
 GLOBAL| Grid backend                                                       AUTO
 GLOBAL| Global print level                                               MEDIUM
 GLOBAL| MPI I/O enabled                                                       T
 GLOBAL| Total number of message passing processes                            48
 GLOBAL| Number of threads for this process                                    4
 GLOBAL| This output is from process                                           0
 GLOBAL| OpenMP stack size per thread (OMP_STACKSIZE)                    default
 GLOBAL| CPU model name             Intel(R) Xeon(R) Platinum 8174 CPU @ 3.10GHz

 MEMORY| system memory details [Kb]
 MEMORY|                        rank 0           min           max       average
 MEMORY| MemTotal             98436664      98436664      98436708      98436675
 MEMORY| MemFree              83938656      83656532      83938656      83807214
 MEMORY| Buffers                     0             0             0             0
 MEMORY| Cached                2408280       2401320       2408280       2406081
 MEMORY| Slab                  1239052       1239052       1251308       1246909
 MEMORY| SReclaimable           276972        276304        279960        277415
 MEMORY| MemLikelyFree        86623908      86343720      86623908      86490710


 *** Fundamental physical constants (SI units) ***

 *** Literature: B. J. Mohr and B. N. Taylor,
 ***             CODATA recommended values of the fundamental physical
 ***             constants: 2006, Web Version 5.1
 ***             http://physics.nist.gov/constants

 Speed of light in vacuum [m/s]                             2.99792458000000E+08
 Magnetic constant or permeability of vacuum [N/A**2]       1.25663706143592E-06
 Electric constant or permittivity of vacuum [F/m]          8.85418781762039E-12
 Planck constant (h) [J*s]                                  6.62606896000000E-34
 Planck constant (h-bar) [J*s]                              1.05457162825177E-34
 Elementary charge [C]                                      1.60217648700000E-19
 Electron mass [kg]                                         9.10938215000000E-31
 Electron g factor [ ]                                     -2.00231930436220E+00
 Proton mass [kg]                                           1.67262163700000E-27
 Fine-structure constant                                    7.29735253760000E-03
 Rydberg constant [1/m]                                     1.09737315685270E+07
 Avogadro constant [1/mol]                                  6.02214179000000E+23
 Boltzmann constant [J/K]                                   1.38065040000000E-23
 Atomic mass unit [kg]                                      1.66053878200000E-27
 Bohr radius [m]                                            5.29177208590000E-11

 *** Conversion factors ***

 [u] -> [a.u.]                                              1.82288848426455E+03
 [Angstrom] -> [Bohr] = [a.u.]                              1.88972613288564E+00
 [a.u.] = [Bohr] -> [Angstrom]                              5.29177208590000E-01
 [a.u.] -> [s]                                              2.41888432650478E-17
 [a.u.] -> [fs]                                             2.41888432650478E-02
 [a.u.] -> [J]                                              4.35974393937059E-18
 [a.u.] -> [N]                                              8.23872205491840E-08
 [a.u.] -> [K]                                              3.15774647902944E+05
 [a.u.] -> [kJ/mol]                                         2.62549961709828E+03
 [a.u.] -> [kcal/mol]                                       6.27509468713739E+02
 [a.u.] -> [Pa]                                             2.94210107994716E+13
 [a.u.] -> [bar]                                            2.94210107994716E+08
 [a.u.] -> [atm]                                            2.90362800883016E+08
 [a.u.] -> [eV]                                             2.72113838565563E+01
 [a.u.] -> [Hz]                                             6.57968392072181E+15
 [a.u.] -> [1/cm] (wave numbers)                            2.19474631370540E+05
 [a.u./Bohr**2] -> [1/cm]                                   5.14048714338585E+03
 

 CELL_TOP| Volume [angstrom^3]:                                     27000.000000
 CELL_TOP| Vector a [angstrom    30.000     0.000     0.000   |a| =    30.000000
 CELL_TOP| Vector b [angstrom     0.000    30.000     0.000   |b| =    30.000000
 CELL_TOP| Vector c [angstrom     0.000     0.000    30.000   |c| =    30.000000
 CELL_TOP| Angle (b,c), alpha [degree]:                                90.000000
 CELL_TOP| Angle (a,c), beta  [degree]:                                90.000000
 CELL_TOP| Angle (a,b), gamma [degree]:                                90.000000
 CELL_TOP| Numerically orthorhombic:                                         YES
 CELL_TOP| Periodicity                                                      NONE

 GENERATE|  Preliminary Number of Bonds generated:                             0
 GENERATE|  Achieved consistency in connectivity generation.

 CELL| Volume [angstrom^3]:                                         27000.000000
 CELL| Vector a [angstrom]:      30.000     0.000     0.000   |a| =    30.000000
 CELL| Vector b [angstrom]:       0.000    30.000     0.000   |b| =    30.000000
 CELL| Vector c [angstrom]:       0.000     0.000    30.000   |c| =    30.000000
 CELL| Angle (b,c), alpha [degree]:                                    90.000000
 CELL| Angle (a,c), beta  [degree]:                                    90.000000
 CELL| Angle (a,b), gamma [degree]:                                    90.000000
 CELL| Numerically orthorhombic:                                             YES
 CELL| Periodicity                                                          NONE

 CELL_REF| Volume [angstrom^3]:                                     27000.000000
 CELL_REF| Vector a [angstrom    30.000     0.000     0.000   |a| =    30.000000
 CELL_REF| Vector b [angstrom     0.000    30.000     0.000   |b| =    30.000000
 CELL_REF| Vector c [angstrom     0.000     0.000    30.000   |c| =    30.000000
 CELL_REF| Angle (b,c), alpha [degree]:                                90.000000
 CELL_REF| Angle (a,c), beta  [degree]:                                90.000000
 CELL_REF| Angle (a,b), gamma [degree]:                                90.000000
 CELL_REF| Numerically orthorhombic:                                         YES
 CELL_REF| Periodicity                                                      NONE

 *******************************************************************************
 *******************************************************************************
 **                                                                           **
 **     #####                         ##              ##                      **
 **    ##   ##            ##          ##              ##                      **
 **   ##     ##                       ##            ######                    **
 **   ##     ##  ##   ##  ##   #####  ##  ##   ####   ##    #####    #####    **
 **   ##     ##  ##   ##  ##  ##      ## ##   ##      ##   ##   ##  ##   ##   **
 **   ##  ## ##  ##   ##  ##  ##      ####     ###    ##   ######   ######    **
 **    ##  ###   ##   ##  ##  ##      ## ##      ##   ##   ##       ##        **
 **     #######   #####   ##   #####  ##  ##  ####    ##    #####   ##        **
 **           ##                                                    ##        **
 **                                                                           **
 **                                                ... make the atoms dance   **
 **                                                                           **
 **            Copyright (C) by CP2K developers group (2000-2025)             **
 **                      J. Chem. Phys. 152, 194103 (2020)                    **
 **                                                                           **
 *******************************************************************************

 DFT| Spin restricted Kohn-Sham (RKS) calculation                            RKS
 DFT| Multiplicity                                                             1
 DFT| Number of spin states                                                    1
 DFT| Charge                                                                   0
 DFT| Self-interaction correction (SIC)                                       NO
 DFT| Cutoffs: density                                              1.000000E-10
 DFT|          gradient                                             1.000000E-10
 DFT|          tau                                                  1.000000E-10
 DFT|          cutoff_smoothing_range                               0.000000E+00
 DFT| XC density smoothing                                                  NONE
 DFT| XC derivatives                                                          PW

 FUNCTIONAL| PBE:
 FUNCTIONAL| J.P.Perdew, K.Burke, M.Ernzerhof, Phys. Rev. Letter, vol. 77, n 18,
 FUNCTIONAL|  pp. 3865-3868, (1996)sx=0.750sc=1.000{spin unpolarized}           


 QS| Method:                                                                GAPW
 QS| Density plane wave grid type                        NON-SPHERICAL FULLSPACE
 QS| Number of grid levels:                                                    4
 QS| Density cutoff [a.u.]:                                                250.0
 QS| Multi grid cutoff [a.u.]: 1) grid level                               250.0
 QS|                           2) grid level                                83.3
 QS|                           3) grid level                                27.8
 QS|                           4) grid level                                 9.3
 QS| Grid level progression factor:                                          3.0
 QS| Relative density cutoff [a.u.]:                                        50.0
 QS| Interaction thresholds: eps_pgf_orb:                                1.0E-12
 QS|                         eps_filter_matrix:                          0.0E+00
 QS|                         eps_core_charge:                            1.0E-14
 QS|                         eps_rho_gspace:                             1.0E-12
 QS|                         eps_rho_rspace:                             1.0E-12
 QS|                         eps_gvg_rspace:                             1.0E-06
 QS|                         eps_ppl:                                    1.0E-02
 QS|                         eps_ppnl:                                   1.0E-08
 QS| GAPW|      One center basis from orbital basis primitives
 QS| GAPW|                   eps_fit:                                    1.0E-04
 QS| GAPW|                   eps_iso:                                    1.0E-12
 QS| GAPW|                   eps_svd:                                    1.0E-08
 QS| GAPW|                   eps_cpc:                                    1.0E-12
 QS| GAPW|   atom-r-grid: quadrature:                                     GC_LOG
 QS| GAPW|      atom-s-grid:  max l :                                          4
 QS| GAPW|      max_l_rho0 :                                                   2


 ATOMIC KIND INFORMATION

  1. Atomic kind: H                                     Number of atoms:       4

     Orbital Basis Set                                         aug-SZV-MOLOPT-ae

       Number of orbital shell sets:                                           1
       Number of orbital shells:                                               4
       Number of primitive Cartesian functions:                                7
       Number of Cartesian basis functions:                                    6
       Number of spherical basis functions:                                    6
       Norm type:                                                              2

       Normalised Cartesian orbitals:

                        Set   Shell   Orbital            Exponent    Coefficient

                          1       1    1s                0.065428       0.000000
                                                         0.100112       0.016532
                                                         0.243077       0.102760
                                                         0.625955       0.185857
                                                         1.822143       0.188385
                                                         6.513144       0.143430
                                                        35.523221       0.095030

                          1       2    2s                0.065428       0.083549
                                                         0.100112       0.009605
                                                         0.243077       0.002524
                                                         0.625955       0.013457
                                                         1.822143       0.000000
                                                         6.513144       0.000000
                                                        35.523221       0.000000

                          1       3    3s                0.065428       0.037407
                                                         0.100112      -0.169070
                                                         0.243077      -0.018899
                                                         0.625955       0.012806
                                                         1.822143       0.000000
                                                         6.513144       0.000000
                                                        35.523221       0.000000

                          1       4    2px               0.065428       0.059908
                                                         0.100112      -0.023770
                                                         0.243077       0.000032
                                                         0.625955       0.017779
                                                         1.822143       0.000000
                                                         6.513144       0.000000
                                                        35.523221       0.000000
                          1       4    2py               0.065428       0.059908
                                                         0.100112      -0.023770
                                                         0.243077       0.000032
                                                         0.625955       0.017779
                                                         1.822143       0.000000
                                                         6.513144       0.000000
                                                        35.523221       0.000000
                          1       4    2pz               0.065428       0.059908
                                                         0.100112      -0.023770
                                                         0.243077       0.000032
                                                         0.625955       0.017779
                                                         1.822143       0.000000
                                                         6.513144       0.000000
                                                        35.523221       0.000000

     RI Auxiliary Basis Set             RI_aug-SZV-MOLOPT-ae_N_RI_007_s_p_d_f_g_

       Number of orbital shell sets:                                           5
       Number of orbital shells:                                               5
       Number of primitive Cartesian functions:                                5
       Number of Cartesian basis functions:                                    7
       Number of spherical basis functions:                                    7
       Norm type:                                                              2

       Normalised Cartesian orbitals:

                        Set   Shell   Orbital            Exponent    Coefficient

                          1       1    1s                0.148777       0.170731

                          2       1    5px               0.367452       0.407794
                          2       1    5py               0.367452       0.407794
                          2       1    5pz               0.367452       0.407794

                          3       1    2s                0.510503       0.430437

                          4       1    3s                1.106366       0.768837

                          5       1    4s                5.955292       2.716986

       Atomic covalent radius [Angstrom]:                                  0.320

       Atomic van der Waals radius [Angstrom]:                             1.090

     The atoms of this atomic kind are PAW atoms (GAPW):
       Hard Gaussian function radius:                                      1.200
       Rho0 radius:                                                        1.200
       Maximum GTO radius used for PAW projector construction:            24.566

     GAPW Soft Basis Set                                  aug-SZV-MOLOPT-ae_soft

       Number of orbital shell sets:                                           1
       Number of orbital shells:                                               4
       Number of primitive Cartesian functions:                                6
       Number of Cartesian basis functions:                                    6
       Number of spherical basis functions:                                    6
       Norm type:                                                              2

       Normalised Cartesian orbitals:

                        Set   Shell   Orbital            Exponent    Coefficient

                          1       1    1s                0.065428       0.000000
                                                         0.100112       0.016532
                                                         0.243077       0.102760
                                                         0.625955       0.185857
                                                         1.822143       0.188385
                                                         6.513144       0.000000

                          1       2    2s                0.065428       0.083549
                                                         0.100112       0.009605
                                                         0.243077       0.002524
                                                         0.625955       0.013457
                                                         1.822143       0.000000
                                                         6.513144       0.000000

                          1       3    3s                0.065428       0.037407
                                                         0.100112      -0.169070
                                                         0.243077      -0.018899
                                                         0.625955       0.012806
                                                         1.822143       0.000000
                                                         6.513144       0.000000

                          1       4    2px               0.065428       0.059908
                                                         0.100112      -0.023770
                                                         0.243077       0.000032
                                                         0.625955       0.017779
                                                         1.822143       0.000000
                                                         6.513144       0.000000
                          1       4    2py               0.065428       0.059908
                                                         0.100112      -0.023770
                                                         0.243077       0.000032
                                                         0.625955       0.017779
                                                         1.822143       0.000000
                                                         6.513144       0.000000
                          1       4    2pz               0.065428       0.059908
                                                         0.100112      -0.023770
                                                         0.243077       0.000032
                                                         0.625955       0.017779
                                                         1.822143       0.000000
                                                         6.513144       0.000000

     AE Potential information for                                            ALL

       Description:                                       All-electron potential
                                          Krack, Parrinello, PCCP 2, 2105 (2000)

       Gaussian exponent of the core charge distribution:              12.500000
       Electronic configuration (s p d ...):                           1   0   0

  2. Atomic kind: SI                                    Number of atoms:       1

     Orbital Basis Set                                         aug-SZV-MOLOPT-ae

       Number of orbital shell sets:                                           3
       Number of orbital shells:                                               8
       Number of primitive Cartesian functions:                               19
       Number of Cartesian basis functions:                                   19
       Number of spherical basis functions:                                   18
       Norm type:                                                              2

       Normalised Cartesian orbitals:

                        Set   Shell   Orbital            Exponent    Coefficient

                          1       1    1s                0.050000       0.000000
                                                         0.108147       0.037104
                                                         0.209845       0.162522
                                                         0.424059       0.056577
                                                         0.947368      -0.122164
                                                         2.526244      -0.101401
                                                         9.433006      -0.030471

                          1       2    2s                0.050000       0.101632
                                                         0.108147      -0.053013
                                                         0.209845      -0.002191
                                                         0.424059      -0.004423
                                                         0.947368      -0.001221
                                                         2.526244       0.000000
                                                         9.433006       0.000000

                          1       3    2px               0.050000       0.000000
                                                         0.108147       0.009360
                                                         0.209845       0.098990
                                                         0.424059       0.202189
                                                         0.947368       0.101540
                                                         2.526244      -0.083045
                                                         9.433006      -0.168233
                          1       3    2py               0.050000       0.000000
                                                         0.108147       0.009360
                                                         0.209845       0.098990
                                                         0.424059       0.202189
                                                         0.947368       0.101540
                                                         2.526244      -0.083045
                                                         9.433006      -0.168233
                          1       3    2pz               0.050000       0.000000
                                                         0.108147       0.009360
                                                         0.209845       0.098990
                                                         0.424059       0.202189
                                                         0.947368       0.101540
                                                         2.526244      -0.083045
                                                         9.433006      -0.168233

                          1       4    3px               0.050000       0.021248
                                                         0.108147       0.032559
                                                         0.209845       0.010378
                                                         0.424059       0.005670
                                                         0.947368      -0.006789
                                                         2.526244       0.000000
                                                         9.433006       0.000000
                          1       4    3py               0.050000       0.021248
                                                         0.108147       0.032559
                                                         0.209845       0.010378
                                                         0.424059       0.005670
                                                         0.947368      -0.006789
                                                         2.526244       0.000000
                                                         9.433006       0.000000
                          1       4    3pz               0.050000       0.021248
                                                         0.108147       0.032559
                                                         0.209845       0.010378
                                                         0.424059       0.005670
                                                         0.947368      -0.006789
                                                         2.526244       0.000000
                                                         9.433006       0.000000

                          1       5    3dx2              0.050000      -0.000766
                                                         0.108147       0.013209
                                                         0.209845       0.044907
                                                         0.424059       0.098285
                                                         0.947368       0.195298
                                                         2.526244       0.000000
                                                         9.433006       0.000000
                          1       5    3dxy              0.050000      -0.001327
                                                         0.108147       0.022878
                                                         0.209845       0.077781
                                                         0.424059       0.170234
                                                         0.947368       0.338267
                                                         2.526244       0.000000
                                                         9.433006       0.000000
                          1       5    3dxz              0.050000      -0.001327
                                                         0.108147       0.022878
                                                         0.209845       0.077781
                                                         0.424059       0.170234
                                                         0.947368       0.338267
                                                         2.526244       0.000000
                                                         9.433006       0.000000
                          1       5    3dy2              0.050000      -0.000766
                                                         0.108147       0.013209
                                                         0.209845       0.044907
                                                         0.424059       0.098285
                                                         0.947368       0.195298
                                                         2.526244       0.000000
                                                         9.433006       0.000000
                          1       5    3dyz              0.050000      -0.001327
                                                         0.108147       0.022878
                                                         0.209845       0.077781
                                                         0.424059       0.170234
                                                         0.947368       0.338267
                                                         2.526244       0.000000
                                                         9.433006       0.000000
                          1       5    3dz2              0.050000      -0.000766
                                                         0.108147       0.013209
                                                         0.209845       0.044907
                                                         0.424059       0.098285
                                                         0.947368       0.195298
                                                         2.526244       0.000000
                                                         9.433006       0.000000

                          2       1    1s              240.490485      -0.576821
                                                        47.599343      -0.606921
                                                        14.793840      -0.181635
                                                         5.691724       0.657208
                                                         2.471919       0.836158
                                                         1.133062       0.188403

                          2       2    2px             240.490485       5.075341
                                                        47.599343       6.714983
                                                        14.793840       7.191719
                                                         5.691724       5.238524
                                                         2.471919       1.881479
                                                         1.133062       0.169478
                          2       2    2py             240.490485       5.075341
                                                        47.599343       6.714983
                                                        14.793840       7.191719
                                                         5.691724       5.238524
                                                         2.471919       1.881479
                                                         1.133062       0.169478
                          2       2    2pz             240.490485       5.075341
                                                        47.599343       6.714983
                                                        14.793840       7.191719
                                                         5.691724       5.238524
                                                         2.471919       1.881479
                                                         1.133062       0.169478

                          3       1    1s             4229.261737       3.425110
                                                       775.430510       5.169583
                                                       216.937513       6.789843
                                                        74.523891       6.698747
                                                        28.939808       3.703719
                                                        11.919011       0.595866

     RI Auxiliary Basis Set             RI_aug-SZV-MOLOPT-ae_N_RI_081_s_p_d_f_g_

       Number of orbital shell sets:                                          21
       Number of orbital shells:                                              21
       Number of primitive Cartesian functions:                               21
       Number of Cartesian basis functions:                                  109
       Number of spherical basis functions:                                   81
       Norm type:                                                              2

       Normalised Cartesian orbitals:

                        Set   Shell   Orbital            Exponent    Coefficient

                          1       1    1s                0.179684       0.196695

                          2       1    8px               0.209873       0.202481
                          2       1    8py               0.209873       0.202481
                          2       1    8pz               0.209873       0.202481

                          3       1   14dx2              0.259924       0.155737
                          3       1   14dxy              0.259924       0.269744
                          3       1   14dxz              0.259924       0.269744
                          3       1   14dy2              0.259924       0.155737
                          3       1   14dyz              0.259924       0.269744
                          3       1   14dz2              0.259924       0.155737

                          4       1   17fx3              0.317859       0.111682
                          4       1   17fx2y             0.317859       0.249728
                          4       1   17fx2z             0.317859       0.249728
                          4       1   17fxy2             0.317859       0.249728
                          4       1   17fxyz             0.317859       0.432542
                          4       1   17fxz2             0.317859       0.249728
                          4       1   17fy3              0.317859       0.111682
                          4       1   17fy2z             0.317859       0.249728
                          4       1   17fyz2             0.317859       0.249728
                          4       1   17fz3              0.317859       0.111682

                          5       1    2s                0.342524       0.319101

                          6       1    9px               0.479206       0.568320
                          6       1    9py               0.479206       0.568320
                          6       1    9pz               0.479206       0.568320

                          7       1   15dx2              0.829551       1.186820
                          7       1   15dxy              0.829551       2.055632
                          7       1   15dxz              0.829551       2.055632
                          7       1   15dy2              0.829551       1.186820
                          7       1   15dyz              0.829551       2.055632
                          7       1   15dz2              0.829551       1.186820

                          8       1   21hx5              0.843211       0.426222
                          8       1   21hx4y             0.843211       1.278667
                          8       1   21hx4z             0.843211       1.278667
                          8       1   21hx3y2            0.843211       1.953196
                          8       1   21hx3yz            0.843211       3.383035
                          8       1   21hx3z2            0.843211       1.953196
                          8       1   21hx2y3            0.843211       1.953196
                          8       1   21hx2y2z           0.843211       4.367479
                          8       1   21hx2yz2           0.843211       4.367479
                          8       1   21hx2z3            0.843211       1.953196
                          8       1   21hxy4             0.843211       1.278667
                          8       1   21hxy3z            0.843211       3.383035
                          8       1   21hxy2z2           0.843211       4.367479
                          8       1   21hxyz3            0.843211       3.383035
                          8       1   21hxz4             0.843211       1.278667
                          8       1   21hy5              0.843211       0.426222
                          8       1   21hy4z             0.843211       1.278667
                          8       1   21hy3z2            0.843211       1.953196
                          8       1   21hy2z3            0.843211       1.953196
                          8       1   21hyz4             0.843211       1.278667
                          8       1   21hz5              0.843211       0.426222

                          9       1   18fx3              0.955711       1.329503
                          9       1   18fx2y             0.955711       2.972859
                          9       1   18fx2z             0.955711       2.972859
                          9       1   18fxy2             0.955711       2.972859
                          9       1   18fxyz             0.955711       5.149142
                          9       1   18fxz2             0.955711       2.972859
                          9       1   18fy3              0.955711       1.329503
                          9       1   18fy2z             0.955711       2.972859
                          9       1   18fyz2             0.955711       2.972859
                          9       1   18fz3              0.955711       1.329503

                         10       1   20gx4              0.999843       1.112367
                         10       1   20gx3y             0.999843       2.943047
                         10       1   20gx3z             0.999843       2.943047
                         10       1   20gx2y2            0.999843       3.799457
                         10       1   20gx2yz            0.999843       6.580852
                         10       1   20gx2z2            0.999843       3.799457
                         10       1   20gxy3             0.999843       2.943047
                         10       1   20gxy2z            0.999843       6.580852
                         10       1   20gxyz2            0.999843       6.580852
                         10       1   20gxz3             0.999843       2.943047
                         10       1   20gy4              0.999843       1.112367
                         10       1   20gy3z             0.999843       2.943047
                         10       1   20gy2z2            0.999843       3.799457
                         10       1   20gyz3             0.999843       2.943047
                         10       1   20gz4              0.999843       1.112367

                         11       1    3s                1.377265       0.906094

                         12       1   10px               1.573113       2.511251
                         12       1   10py               1.573113       2.511251
                         12       1   10pz               1.573113       2.511251

                         13       1   19fx3              4.299204      39.181188
                         13       1   19fx2y             4.299204      87.611799
                         13       1   19fx2z             4.299204      87.611799
                         13       1   19fxy2             4.299204      87.611799
                         13       1   19fxyz             4.299204     151.748087
                         13       1   19fxz2             4.299204      87.611799
                         13       1   19fy3              4.299204      39.181188
                         13       1   19fy2z             4.299204      87.611799
                         13       1   19fyz2             4.299204      87.611799
                         13       1   19fz3              4.299204      39.181188

                         14       1    4s                5.139856       2.432895

                         15       1   11px               5.551275      12.145937
                         15       1   11py               5.551275      12.145937
                         15       1   11pz               5.551275      12.145937

                         16       1   16dx2             15.402766     197.109343
                         16       1   16dxy             15.402766     341.403396
                         16       1   16dxz             15.402766     341.403396
                         16       1   16dy2             15.402766     197.109343
                         16       1   16dyz             15.402766     341.403396
                         16       1   16dz2             15.402766     197.109343

                         17       1    5s               18.660383       6.398829

                         18       1   12px              19.446230      58.208227
                         18       1   12py              19.446230      58.208227
                         18       1   12pz              19.446230      58.208227

                         19       1    6s               67.482230      16.780394

                         20       1   13px              67.961091     278.141324
                         20       1   13py              67.961091     278.141324
                         20       1   13pz              67.961091     278.141324

                         21       1    7s              243.777673      43.969906

       Atomic covalent radius [Angstrom]:                                  1.110

       Atomic van der Waals radius [Angstrom]:                             2.100

     The atoms of this atomic kind are PAW atoms (GAPW):
       Hard Gaussian function radius:                                      1.512
       Rho0 radius:                                                        1.512
       Maximum GTO radius used for PAW projector construction:            24.566

     GAPW Soft Basis Set                                  aug-SZV-MOLOPT-ae_soft

       Number of orbital shell sets:                                           3
       Number of orbital shells:                                               8
       Number of primitive Cartesian functions:                                8
       Number of Cartesian basis functions:                                   19
       Number of spherical basis functions:                                   18
       Norm type:                                                              2

       Normalised Cartesian orbitals:

                        Set   Shell   Orbital            Exponent    Coefficient

                          1       1    1s                0.050000       0.000000
                                                         0.108147       0.037104
                                                         0.209845       0.162522
                                                         0.424059       0.056577
                                                         0.947368      -0.122164
                                                         2.526244      -0.101401

                          1       2    2s                0.050000       0.101632
                                                         0.108147      -0.053013
                                                         0.209845      -0.002191
                                                         0.424059      -0.004423
                                                         0.947368      -0.001221
                                                         2.526244       0.000000

                          1       3    2px               0.050000       0.000000
                                                         0.108147       0.009360
                                                         0.209845       0.098990
                                                         0.424059       0.202189
                                                         0.947368       0.101540
                                                         2.526244      -0.083045
                          1       3    2py               0.050000       0.000000
                                                         0.108147       0.009360
                                                         0.209845       0.098990
                                                         0.424059       0.202189
                                                         0.947368       0.101540
                                                         2.526244      -0.083045
                          1       3    2pz               0.050000       0.000000
                                                         0.108147       0.009360
                                                         0.209845       0.098990
                                                         0.424059       0.202189
                                                         0.947368       0.101540
                                                         2.526244      -0.083045

                          1       4    3px               0.050000       0.021248
                                                         0.108147       0.032559
                                                         0.209845       0.010378
                                                         0.424059       0.005670
                                                         0.947368      -0.006789
                                                         2.526244       0.000000
                          1       4    3py               0.050000       0.021248
                                                         0.108147       0.032559
                                                         0.209845       0.010378
                                                         0.424059       0.005670
                                                         0.947368      -0.006789
                                                         2.526244       0.000000
                          1       4    3pz               0.050000       0.021248
                                                         0.108147       0.032559
                                                         0.209845       0.010378
                                                         0.424059       0.005670
                                                         0.947368      -0.006789
                                                         2.526244       0.000000

                          1       5    3dx2              0.050000      -0.000766
                                                         0.108147       0.013209
                                                         0.209845       0.044907
                                                         0.424059       0.098285
                                                         0.947368       0.195298
                                                         2.526244       0.000000
                          1       5    3dxy              0.050000      -0.001327
                                                         0.108147       0.022878
                                                         0.209845       0.077781
                                                         0.424059       0.170234
                                                         0.947368       0.338267
                                                         2.526244       0.000000
                          1       5    3dxz              0.050000      -0.001327
                                                         0.108147       0.022878
                                                         0.209845       0.077781
                                                         0.424059       0.170234
                                                         0.947368       0.338267
                                                         2.526244       0.000000
                          1       5    3dy2              0.050000      -0.000766
                                                         0.108147       0.013209
                                                         0.209845       0.044907
                                                         0.424059       0.098285
                                                         0.947368       0.195298
                                                         2.526244       0.000000
                          1       5    3dyz              0.050000      -0.001327
                                                         0.108147       0.022878
                                                         0.209845       0.077781
                                                         0.424059       0.170234
                                                         0.947368       0.338267
                                                         2.526244       0.000000
                          1       5    3dz2              0.050000      -0.000766
                                                         0.108147       0.013209
                                                         0.209845       0.044907
                                                         0.424059       0.098285
                                                         0.947368       0.195298
                                                         2.526244       0.000000

                          2       1    1s                2.471919       0.836158
                                                         1.133062       0.188403

                          2       2    2px               2.471919       1.881479
                                                         1.133062       0.169478
                          2       2    2py               2.471919       1.881479
                                                         1.133062       0.169478
                          2       2    2pz               2.471919       1.881479
                                                         1.133062       0.169478

                          3       1    1s         

     AE Potential information for                                            ALL

       Description:                                       All-electron potential
                                          Krack, Parrinello, PCCP 2, 2105 (2000)

       Gaussian exponent of the core charge distribution:               2.582645
       Electronic configuration (s p d ...):                           6   8   0


 MOLECULE KIND INFORMATION


 All atoms are their own molecule, skipping detailed information


 TOTAL NUMBERS AND MAXIMUM NUMBERS

  Total number of            - Atomic kinds:                                   2
                             - Atoms:                                          5
                             - Shell sets:                                     7
                             - Shells:                                        24
                             - Primitive Cartesian functions:                 47
                             - Cartesian basis functions:                     43
                             - Spherical basis functions:                     42

  Maximum angular momentum of the orbital basis functions:                     2


 MODULE QUICKSTEP: ATOMIC COORDINATES IN ANGSTROM

   Atom Kind Element         X             Y             Z       Z(eff)     Mass
      1    1 H     1     14.288639     14.750433     13.902863   1.0000   1.0079
      2    2 SI   14     14.670826     14.817808     15.329654  14.0000  28.0855
      3    1 H     1     16.112672     14.520799     15.468242   1.0000   1.0079
      4    1 H     1     14.394666     16.173878     15.850374   1.0000   1.0079
      5    1 H     1     13.887328     13.826122     16.097137   1.0000   1.0079



 SCF PARAMETERS         Density guess:                                    ATOMIC
                        --------------------------------------------------------
                        max_scf:                                             500
                        max_scf_history:                                       0
                        max_diis:                                              4
                        --------------------------------------------------------
                        eps_scf:                                        1.00E-06
                        eps_scf_history:                                0.00E+00
                        eps_diis:                                       1.00E-01
                        eps_eigval:                                     1.00E-05
                        --------------------------------------------------------
                        level_shift [a.u.]:                             0.000000
                        added MOs                                        33    0
                        --------------------------------------------------------
                        Mixing method:                            BROYDEN_MIXING
                                                charge density mixing in g-space
                        --------------------------------------------------------
                        No outer SCF

 PW_GRID| Information for grid number                                          1
 PW_GRID| Grid distributed over                                    48 processors
 PW_GRID| Real space group dimensions                                    48    1
 PW_GRID| the grid is blocked:                                                NO
 PW_GRID| Cutoff [a.u.]                                                    250.0
 PW_GRID| spherical cutoff:                                                   NO
 PW_GRID|   Bounds   1           -202     202                Points:         405
 PW_GRID|   Bounds   2           -202     202                Points:         405
 PW_GRID|   Bounds   3           -202     202                Points:         405
 PW_GRID| Volume element (a.u.^3)  0.2743E-02     Volume (a.u.^3)    182205.0337
 PW_GRID| Grid span                                                    FULLSPACE
 PW_GRID|   Distribution                         Average         Max         Min
 PW_GRID|   G-Vectors                          1383960.9     1384290     1383885
 PW_GRID|   G-Rays                                3417.2        3418        3417
 PW_GRID|   Real Space Points                  1383960.9     1476225     1312200

 PW_GRID| Information for grid number                                          2
 PW_GRID| Number of the reference grid                                         1
 PW_GRID| Grid distributed over                                    48 processors
 PW_GRID| Real space group dimensions                                    48    1
 PW_GRID| the grid is blocked:                                                NO
 PW_GRID| Cutoff [a.u.]                                                     83.3
 PW_GRID| spherical cutoff:                                                   NO
 PW_GRID|   Bounds   1           -120     119                Points:         240
 PW_GRID|   Bounds   2           -120     119                Points:         240
 PW_GRID|   Bounds   3           -120     119                Points:         240
 PW_GRID| Volume element (a.u.^3)  0.1318E-01     Volume (a.u.^3)    182205.0337
 PW_GRID| Grid span                                                    FULLSPACE
 PW_GRID|   Distribution                         Average         Max         Min
 PW_GRID|   G-Vectors                           288000.0      288720      287520
 PW_GRID|   G-Rays                                1200.0        1203        1198
 PW_GRID|   Real Space Points                   288000.0      288000      288000

 PW_GRID| Information for grid number                                          3
 PW_GRID| Number of the reference grid                                         1
 PW_GRID| Grid distributed over                                    48 processors
 PW_GRID| Real space group dimensions                                    48    1
 PW_GRID| the grid is blocked:                                                NO
 PW_GRID| Cutoff [a.u.]                                                     27.8
 PW_GRID| spherical cutoff:                                                   NO
 PW_GRID|   Bounds   1            -67      67                Points:         135
 PW_GRID|   Bounds   2            -67      67                Points:         135
 PW_GRID|   Bounds   3            -67      67                Points:         135
 PW_GRID| Volume element (a.u.^3)  0.7406E-01     Volume (a.u.^3)    182205.0337
 PW_GRID| Grid span                                                    FULLSPACE
 PW_GRID|   Distribution                         Average         Max         Min
 PW_GRID|   G-Vectors                            51257.8       51570       51030
 PW_GRID|   G-Rays                                 379.7         382         378
 PW_GRID|   Real Space Points                    51257.8       54675       36450

 PW_GRID| Information for grid number                                          4
 PW_GRID| Number of the reference grid                                         1
 PW_GRID| Grid distributed over                                    48 processors
 PW_GRID| Real space group dimensions                                    48    1
 PW_GRID| the grid is blocked:                                                NO
 PW_GRID| Cutoff [a.u.]                                                      9.3
 PW_GRID| spherical cutoff:                                                   NO
 PW_GRID|   Bounds   1            -40      39                Points:          80
 PW_GRID|   Bounds   2            -40      39                Points:          80
 PW_GRID|   Bounds   3            -40      39                Points:          80
 PW_GRID| Volume element (a.u.^3)  0.3559         Volume (a.u.^3)    182205.0337
 PW_GRID| Grid span                                                    FULLSPACE
 PW_GRID|   Distribution                         Average         Max         Min
 PW_GRID|   G-Vectors                            10666.7       10800       10560
 PW_GRID|   G-Rays                                 133.3         135         132
 PW_GRID|   Real Space Points                    10666.7       12800        6400

 POISSON| Solver                                                         WAVELET
 POISSON| Wavelet| Scaling function                                           40
 POISSON| Periodicity                                                       NONE

 RS_GRID| Information for grid number                                          1
 RS_GRID|   Bounds   1           -202     202                Points:         405
 RS_GRID|   Bounds   2           -202     202                Points:         405
 RS_GRID|   Bounds   3           -202     202                Points:         405
 RS_GRID| Real space distribution over                                  3 groups
 RS_GRID| Real space distribution along direction                              1
 RS_GRID| Border size                                                         33
 RS_GRID| Real space distribution over                                  4 groups
 RS_GRID| Real space distribution along direction                              2
 RS_GRID| Border size                                                         33
 RS_GRID| Real space distribution over                                  4 groups
 RS_GRID| Real space distribution along direction                              3
 RS_GRID| Border size                                                         33
 RS_GRID|   Distribution                         Average         Max         Min
 RS_GRID|   Planes                                 201.0         201         201
 RS_GRID|   Distribution                         Average         Max         Min
 RS_GRID|   Planes                                 167.2         168         167
 RS_GRID|   Distribution                         Average         Max         Min
 RS_GRID|   Planes                                 167.2         168         167

 RS_GRID| Information for grid number                                          2
 RS_GRID|   Bounds   1           -120     119                Points:         240
 RS_GRID|   Bounds   2           -120     119                Points:         240
 RS_GRID|   Bounds   3           -120     119                Points:         240
 RS_GRID| Real space distribution over                                  3 groups
 RS_GRID| Real space distribution along direction                              1
 RS_GRID| Border size                                                         35
 RS_GRID| Real space distribution over                                  4 groups
 RS_GRID| Real space distribution along direction                              2
 RS_GRID| Border size                                                         35
 RS_GRID| Real space distribution over                                  4 groups
 RS_GRID| Real space distribution along direction                              3
 RS_GRID| Border size                                                         35
 RS_GRID|   Distribution                         Average         Max         Min
 RS_GRID|   Planes                                 150.0         150         150
 RS_GRID|   Distribution                         Average         Max         Min
 RS_GRID|   Planes                                 130.0         130         130
 RS_GRID|   Distribution                         Average         Max         Min
 RS_GRID|   Planes                                 130.0         130         130

 RS_GRID| Information for grid number                                          3
 RS_GRID|   Bounds   1            -67      67                Points:         135
 RS_GRID|   Bounds   2            -67      67                Points:         135
 RS_GRID|   Bounds   3            -67      67                Points:         135
 RS_GRID| Real space fully replicated
 RS_GRID| Group size                                                           1

 RS_GRID| Information for grid number                                          4
 RS_GRID|   Bounds   1            -40      39                Points:          80
 RS_GRID|   Bounds   2            -40      39                Points:          80
 RS_GRID|   Bounds   3            -40      39                Points:          80
 RS_GRID| Real space fully replicated
 RS_GRID| Group size                                                           1

  HFX_INFO| Replica ID:                                                        1
  HFX_INFO| FRACTION:                                               0.2500000000
  HFX_INFO| Interaction Potential:                                       COULOMB
  HFX_INFO| EPS_SCHWARZ:                                                 1.0E-10
  HFX_INFO| EPS_SCHWARZ_FORCES                                           1.0E-08
  HFX_INFO| EPS_STORAGE_SCALING:                                         1.0E+00
  HFX_INFO| NBINS:                                                            64
  HFX_INFO| BLOCK_SIZE:                                                        1
  HFX_INFO| Number of periodic shells considered:                           NONE
  HFX_INFO| Number of periodic cells considered:                            NONE

 
 RI-RPA| using GPW style
 

 OVERLAP MATRIX CONDITION NUMBER
 1-Norm Condition Number (Estimate)
   CN : |A|*|A^-1|:  1.170E+001 *  5.529E+003   = 6.468E+004  Log(1-CN):  4.8107
 1-Norm and 2-Norm Condition Numbers using Diagonalization
   CN : |A|*|A^-1|:  1.170E+001 *  5.529E+003   = 6.468E+004  Log(1-CN):  4.8107
   CN : max/min ev:  7.863E+000 /  3.550E-004   = 2.215E+004  Log(2-CN):  4.3454

 Number of electrons:                                                         18
 Number of occupied orbitals:                                                  9
 Number of molecular orbitals:                                                42

 Number of orbital functions:                                                 42
 Number of independent orbital functions:                                     42

 Extrapolation method: initial_guess

 Atomic guess: The first density matrix is obtained in terms of atomic orbitals
               and electronic configurations assigned to each atomic kind

 Guess for atomic kind: H

 Electronic structure
    Total number of core electrons                                          0.00
    Total number of valence electrons                                       1.00
    Total number of electrons                                               1.00
    Multiplicity                                                   not specified
    S      1.00


 *******************************************************************************
                  Iteration          Convergence                     Energy [au]
 *******************************************************************************
                          1        0.962691E-02                  -0.444368661081
                          2        0.109107E-02                  -0.444473520424
                          3        0.117094E-03                  -0.444476577889
                          4        0.851579E-07                  -0.444476596085

 Energy components [Hartree]           Total Energy ::           -0.444476596085
                                        Band Energy ::           -0.233451424826
                                     Kinetic Energy ::            0.431260327433
                                   Potential Energy ::           -0.875736923518
                                      Virial (-V/T) ::            2.030645686170
                                        Core Energy ::           -0.494218917327
                                          XC Energy ::           -0.231476335377
                                     Coulomb Energy ::            0.281218656618

 Orbital energies  State     L     Occupation   Energy[a.u.]          Energy[eV]

                       1     0          1.000      -0.233451           -6.352536


 Total Electron Density at R=0:                                         0.270947

 Guess for atomic kind: SI

 Electronic structure
    Total number of core electrons                                          0.00
    Total number of valence electrons                                      14.00
    Total number of electrons                                              14.00
    Multiplicity                                                   not specified
    S      2.00  2.00  2.00
    P      6.00  2.00


 *******************************************************************************
                  Iteration          Convergence                     Energy [au]
 *******************************************************************************
                          1        0.590562                    -287.174981358483
                          2        0.126741                    -287.189667770611
                          3        0.158831E-01                -287.191382273456
                          4        0.604279E-04                -287.191573968607
                          5        0.298583E-06                -287.191573970708

 Energy components [Hartree]           Total Energy ::         -287.191573970708
                                        Band Energy ::         -162.297218048371
                                     Kinetic Energy ::          285.758392259112
                                   Potential Energy ::         -572.949966229820
                                      Virial (-V/T) ::            2.005015361755
                                        Core Energy ::         -398.830272335849
                                          XC Energy ::          -19.528372336881
                                     Coulomb Energy ::          131.167070702022

 Orbital energies  State     L     Occupation   Energy[a.u.]          Energy[eV]

                       1     0          2.000     -65.373285        -1778.897550
                       2     0          2.000      -4.982707         -135.586361
                       3     0          2.000      -0.401539          -10.926444

                       1     1          6.000      -3.410963          -92.817036
                       2     1          2.000      -0.158187           -4.304488


 Total Electron Density at R=0:                                      1536.687903
 Re-scaling the density matrix to get the right number of electrons
                  # Electrons              Trace(P)               Scaling factor
                           18                18.000                        1.000


 SCF WAVEFUNCTION OPTIMIZATION

  Step     Update method      Time    Convergence         Total energy    Change
  ------------------------------------------------------------------------------

  HFX_MEM_INFO| Est. max. program size before HFX [MiB]:                    1284
  HFX_MEM_INFO| Number of cart. primitive ERI's calculated:            436474752
  HFX_MEM_INFO| Number of sph. ERI's calculated:                          705024
  HFX_MEM_INFO| Number of sph. ERI's stored in-core:                      705024
  HFX_MEM_INFO| Number of sph. ERI's stored on disk:                           0
  HFX_MEM_INFO| Number of sph. ERI's calculated on the fly:                    0
  HFX_MEM_INFO| Total memory consumption ERI's RAM [MiB]:                      4
  HFX_MEM_INFO| Whereof max-vals [MiB]:                                        2
  HFX_MEM_INFO| Total compression factor ERI's RAM:                         1.73
  HFX_MEM_INFO| Total memory consumption ERI's disk [MiB]:                     0
  HFX_MEM_INFO| Total compression factor ERI's disk:                        0.00
  HFX_MEM_INFO| Size of density/Fock matrix [MiB]:                             0
  HFX_MEM_INFO| Size of buffers [MiB]:                                         0
  HFX_MEM_INFO| Est. max. program size after HFX  [MiB]:                    1788

     1 NoMix/Diag. 0.10E+00    9.2     0.70250691      -290.7283763637 -2.91E+02
     2 Broy./Diag. 0.10E+00    2.6     0.06304874      -290.2174592910  5.11E-01
     3 Broy./Diag. 0.10E+00    2.8     0.09013123      -289.8232079528  3.94E-01
     4 Broy./Diag. 0.10E+00    2.6     0.08942232      -290.0865457111 -2.63E-01
     5 Broy./Diag. 0.10E+00    2.7     0.03166155      -290.2296151549 -1.43E-01
     6 Broy./Diag. 0.10E+00    2.8     0.01336126      -290.2941282125 -6.45E-02
     7 Broy./Diag. 0.10E+00    2.8     0.03797445      -290.4466785133 -1.53E-01
     8 Broy./Diag. 0.10E+00    2.8     0.01106981      -290.5447061708 -9.80E-02
     9 Broy./Diag. 0.10E+00    2.8     0.01150122      -290.6219051520 -7.72E-02
    10 Broy./Diag. 0.10E+00    2.9     0.02496133      -290.7390903056 -1.17E-01
    11 Broy./Diag. 0.10E+00    2.9     0.00628920      -290.8046554950 -6.56E-02
    12 Broy./Diag. 0.10E+00    2.9     0.00553559      -290.8143394486 -9.68E-03
    13 Broy./Diag. 0.10E+00    2.9     0.01563258      -290.8263768494 -1.20E-02
    14 Broy./Diag. 0.10E+00    2.9     0.00566159      -290.8398389745 -1.35E-02
    15 Broy./Diag. 0.10E+00    2.9     0.00691623      -290.8346517823  5.19E-03
    16 Broy./Diag. 0.10E+00    2.9     0.01392006      -290.8190422958  1.56E-02
    17 Broy./Diag. 0.10E+00    2.9     0.00128159      -290.8208671781 -1.82E-03
    18 Broy./Diag. 0.10E+00    2.9     0.00358518      -290.8248213157 -3.95E-03
    19 Broy./Diag. 0.10E+00    2.9     0.01057117      -290.8310542831 -6.23E-03
    20 Broy./Diag. 0.10E+00    2.9     0.00178373      -290.8350098959 -3.96E-03
    21 Broy./Diag. 0.10E+00    2.9     0.00185800      -290.8360441678 -1.03E-03
    22 Broy./Diag. 0.10E+00    2.9     0.00126357      -290.8384077291 -2.36E-03
    23 Broy./Diag. 0.10E+00    2.9     0.00102089      -290.8384352559 -2.75E-05
    24 Broy./Diag. 0.10E+00    2.9     0.00106311      -290.8362598819  2.18E-03
    25 Broy./Diag. 0.10E+00    2.9     0.00033288      -290.8361981272  6.18E-05
    26 Broy./Diag. 0.10E+00    2.9     0.00028037      -290.8361707921  2.73E-05
    27 Broy./Diag. 0.10E+00    2.9     0.00152514      -290.8352619545  9.09E-04
    28 Broy./Diag. 0.10E+00    3.0     0.00023046      -290.8357923067 -5.30E-04
    29 Broy./Diag. 0.10E+00    2.9     0.00018289      -290.8360426045 -2.50E-04
    30 Broy./Diag. 0.10E+00    2.9     0.00065964      -290.8364357222 -3.93E-04
    31 Broy./Diag. 0.10E+00    2.9     0.00013304      -290.8366119524 -1.76E-04
    32 Broy./Diag. 0.10E+00    2.9     0.00029766      -290.8362830704  3.29E-04
    33 Broy./Diag. 0.10E+00    3.0     0.00008017      -290.8361378706  1.45E-04
    34 Broy./Diag. 0.10E+00    2.9     0.00003487      -290.8361070935  3.08E-05
    35 Broy./Diag. 0.10E+00    2.9     0.00006742      -290.8361909477 -8.39E-05
    36 Broy./Diag. 0.10E+00    2.9     0.00004637      -290.8363428239 -1.52E-04
    37 Broy./Diag. 0.10E+00    3.0     0.00001164      -290.8364057819 -6.30E-05
    38 Broy./Diag. 0.10E+00    2.9     0.00002188      -290.8363626673  4.31E-05
    39 Broy./Diag. 0.10E+00    2.9     0.00003191      -290.8363458183  1.68E-05
    40 Broy./Diag. 0.10E+00    2.9     0.00000314      -290.8363523556 -6.54E-06
    41 Broy./Diag. 0.10E+00    2.9     0.00001659      -290.8363484510  3.90E-06
    42 Broy./Diag. 0.10E+00    2.9     0.00000630      -290.8363518965 -3.45E-06
    43 Broy./Diag. 0.10E+00    2.9     0.00002403      -290.8363188244  3.31E-05
    44 Broy./Diag. 0.10E+00    2.9     0.00001698      -290.8362936743  2.52E-05
    45 Broy./Diag. 0.10E+00    2.9     0.00000490      -290.8362878280  5.85E-06
    46 Broy./Diag. 0.10E+00    2.9     0.00000317      -290.8362946877 -6.86E-06
    47 Broy./Diag. 0.10E+00    2.9     0.00001519      -290.8363123209 -1.76E-05
    48 Broy./Diag. 0.10E+00    2.9     0.00000370      -290.8363265910 -1.43E-05
    49 Broy./Diag. 0.10E+00    2.9     0.00000163      -290.8363298078 -3.22E-06
    50 Broy./Diag. 0.10E+00    2.9     0.00000291      -290.8363247940  5.01E-06
    51 Broy./Diag. 0.10E+00    2.9     0.00000121      -290.8363237191  1.07E-06
    52 Broy./Diag. 0.10E+00    2.9     0.00000245      -290.8363213560  2.36E-06
    53 Broy./Diag. 0.10E+00    2.9     0.00000563      -290.8363159949  5.36E-06
    54 Broy./Diag. 0.10E+00    2.9     0.00000171      -290.8363159307  6.42E-08
    55 Broy./Diag. 0.10E+00    3.0     0.00000485      -290.8363187809 -2.85E-06
    56 Broy./Diag. 0.10E+00    2.9     0.00000176      -290.8363191071 -3.26E-07
    57 Broy./Diag. 0.10E+00    2.9     0.00000079      -290.8363196559 -5.49E-07

  *** SCF run converged in    57 steps ***


  Electronic density on regular grids:        -11.0600872662        6.9399127338
  Core density on regular grids:               18.0000000000       -0.0000000000
  Hard and soft densities (Lebedev):          -34.2216758266      -27.2817646718
  Total Rho_soft + Rho1_hard - Rho1_soft      -17.9999984210
  Total charge density (r-space):               0.0000015790
  Total Rho_soft + Rho0_soft (g-space):         0.0000018469

  Overlap energy of the core charge distribution:               0.00000014860939
  Self energy of the core charge distribution:               -131.30230308020512
  Core Hamiltonian energy:                                   -158.19708840531450
  Hartree energy:                                              30.43869552384701
  Exchange-correlation energy:                                 -3.87501302282667
[...]

 U. Borstnik, J. VandeVondele, V. Weber, J. Hutter.
 Parallel Comput. 40, 47-58 (2014).
 Sparse matrix multiplication: The distributed block-compressed sparse row 
 library.
 https://doi.org/10.1016/j.parco.2014.03.012

 M. Del Ben, J. Hutter, J. VandeVondele.
 J. Chem. Theory Comput. 9, 2654-2671 (2013).
 Electron Correlation in the Condensed Phase from a Resolution of Identity 
 Approach Based on the Gaussian and Plane Waves Scheme.
 https://doi.org/10.1021/ct4002202

 M. Del Ben, J. Hutter, J. VandeVondele.
 J. Chem. Theory Comput. 8, 4177-4188 (2012).
 Second-Order Moller-Plesset Perturbation Theory in the Condensed Phase: An 
 Efficient and Massively Parallel Gaussian and Plane Waves Approach.
 https://doi.org/10.1021/ct300531w

 M. Guidon, J. Hutter, J. VandeVondele.
 J. Chem. Theory Comput. 5, 3010-3021 (2009).
 Robust Periodic Hartree-Fock Exchange for Large-Scale Simulations Using 
 Gaussian Basis Sets.
 https://doi.org/10.1021/ct900494g

 M. Guidon, F. Schiffmann, J. Hutter, J. VandeVondele.
 J. Chem. Phys. 128, 214104 (2008).
 Ab initio molecular dynamics using hybrid density functionals.
 https://doi.org/10.1063/1.2931945

 L. Genovese, T. Deutsch, S. Goedecker.
 J. Chem. Phys. 127, 054704 (2007).
 Efficient and accurate three-dimensional Poisson solver for surface problems.
 https://doi.org/10.1063/1.2754685

 J. VandeVondele, J. Hutter.
 J. Chem. Phys. 127, 114105 (2007).
 Gaussian basis sets for accurate calculations on molecular systems in gas and 
 condensed phases.
 https://doi.org/10.1063/1.2770708

 L. Genovese, T. Deutsch, A. Neelov, S. Goedecker, G. Beylkin.
 J. Chem. Phys. 125, 074105 (2006).
 Efficient solution of Poisson's equation with free boundary conditions.
 https://doi.org/10.1063/1.2335442

 M. Frigo, S. G. Johnson.
 Proc. IEEE 93, 216-231 (2005).
 The design and implementation of FFTW3.
 https://doi.org/10.1109/JPROC.2004.840301

 M. Krack, M. Parrinello.
 Phys. Chem. Chem. Phys. 2, 2105-2112 (2000).
 All-electron ab-initio molecular dynamics.
 https://doi.org/10.1039/b001167n

 G. Lippert, J. Hutter, M. Parrinello.
 Theor. Chem. Acc. 103, 124-140 (1999).
 The Gaussian and augmented-plane-wave density functional method for ab initio 
 molecular dynamics simulations.
 https://doi.org/10.1007/s002140050523

 J. P. Perdew, K. Burke, M. Ernzerhof.
 Phys. Rev. Lett. 77, 3865-3868 (1996).
 Generalized gradient approximation made simple.
 https://doi.org/10.1103/PhysRevLett.77.3865


 -------------------------------------------------------------------------------
 -                                                                             -
 -                                T I M I N G                                  -
 -                                                                             -
 -------------------------------------------------------------------------------
 SUBROUTINE                       CALLS  ASD         SELF TIME        TOTAL TIME
                                MAXIMUM       AVERAGE  MAXIMUM  AVERAGE  MAXIMUM
 CP2K                                 1  1.0    0.040    0.059  175.052  175.053
 qs_energies                          1  2.0    0.001    0.001  174.197  174.363
 scf_env_do_scf                       1  3.0    0.000    0.000  171.197  171.198
 scf_env_do_scf_inner_loop           57  4.0    0.002    0.004  171.197  171.197
 qs_ks_build_kohn_sham_matrix        58  7.0    0.009    0.010  132.028  132.032
 qs_ks_update_qs_env                 57  5.0    0.000    0.000  130.641  130.645
 rebuild_ks_matrix                   57  6.0    0.000    0.000  130.636  130.640
 fft_wrap_pw1pw2                   1209  9.9    0.027    0.034   69.000   70.198
 fft_wrap_pw1pw2_250                861 11.1    2.962    3.262   66.806   67.769
 fft3d_ps                          1209 11.9   27.229   30.125   55.617   56.758
 pw_poisson_solve                    58  8.0    1.030    1.132   50.448   50.468
 qs_vxc_create                       58  8.0    0.001    0.001   40.992   40.992
 xc_vxc_pw_create                    57  9.0    0.714    0.805   40.991   40.991
 ps_wavelet_solve                    58  9.0   26.108   29.044   33.214   33.432
 xc_pw_derive                       342 11.0    0.004    0.004   29.957   30.722
 mp_alltoall_d54                     58 10.0    4.631   25.875    4.631   25.875
 mp_alltoall_z22v                  1209 13.9   21.843   24.610   21.843   24.610
 xc_pw_divergence                    57 10.0    0.002    0.003   20.301   21.068
 qs_rho_update_rho_low               58  5.0    0.001    0.001   20.880   20.881
 calculate_rho_elec                  58  6.0    0.567    0.604   20.811   20.812
 xc_rho_set_and_dset_create          57 10.0    0.513    0.657   19.553   20.420
 gspace_mixing                       56  5.0    0.547    0.583   19.602   19.602
 x_to_yz                            632 13.1    4.597    4.979   15.042   15.746
 yz_to_x                            577 12.8    1.928    2.371   13.326   15.545
 density_rs2pw                       58  7.0    0.004    0.004   14.773   15.058
 broyden_mixing                      56  6.0   14.461   14.693   14.734   14.806
 sum_up_and_integrate                58  8.0    0.001    0.001   11.920   11.946
 integrate_v_rspace                  58  9.0    0.001    0.002   11.736   11.843
 potential_pw2rs                     58 10.0    0.030    0.034   11.168   11.265
 prepare_gapw_den                    58  8.0    0.001    0.001    9.190    9.306
 hfx_ks_matrix                       58  8.0    0.002    0.003    8.407    8.489
 integrate_four_center               58  9.0    1.341    2.662    8.403    8.477
 put_rho0_on_grid                    58  9.0    0.573    0.621    8.184    8.299
 transfer_pw2rs                     291 10.6    0.004    0.005    7.942    8.075
 transfer_rs2pw                     291  8.4    0.007    0.010    6.869    7.123
 mp_waitany                        7700 11.5    6.056    6.866    6.056    6.866
 mp_sync                            713  9.3    5.296    6.739    5.296    6.739
 grid_collocate_task_list            58  7.0    5.264    5.634    5.264    5.634
 transfer_pw2rs_250                 117 10.9    1.601    1.723    5.235    5.515
 mp_alltoall_d11v                  1072  9.4    2.733    5.357    2.733    5.357
 transfer_rs2pw_250                 117 10.0    1.761    1.949    4.772    5.065
 xc_functional_eval                 171 10.8    0.001    0.001    4.056    4.695
 pbe_lda_eval                       171 11.8    4.055    4.694    4.055    4.694
 mp_alltoall_d45                     59 10.0    2.345    4.684    2.345    4.684
 pw_scatter_p                       632 12.1    4.516    4.625    4.516    4.625
 integrate_four_center_main          58 10.0    0.099    2.934    0.210    4.351
 mp_sum_d                          1578  6.0    3.557    4.326    3.557    4.326
 pw_gather_p                        577 11.8    3.797    4.297    3.797    4.297
 pw_derive                          516 11.3    3.319    3.542    3.319    3.542
 integrate_vhg0_rspace               58  8.0    0.031    0.042    3.474    3.480
 mp2_main                             1  3.0    0.000    0.000    2.209    2.375
 calculate_vxc_atom                  58  8.0    0.020    0.093    2.308    2.308
 gaVxcgb_GC                          57  9.0    0.064    2.176    0.064    2.176
 cp2k_distribution_to_z_slices       58  9.0    1.088    1.149    2.013    2.160
 pw_copy                            865 10.6    1.969    2.088    1.969    2.088
 fft_wrap_pw1pw2_90                 116 10.5    0.085    0.106    1.751    2.023
 pw_poisson_set                      59  8.9    0.002    0.002    1.839    1.860
 mp_waitall_1                     17958 12.0    0.880    1.678    0.880    1.678
 rs_grid_zero                       292 11.1    1.461    1.503    1.461    1.503
 transfer_pw2rs_90                   58 12.0    0.286    0.344    1.091    1.474
 integrate_four_center_bin         5181 11.0    0.111    1.417    0.111    1.417
 compute_vec_Sigma_x_minus_vxc_       1  4.0    0.000    0.000    1.396    1.396
 pw_axpy                            575  9.3    1.303    1.388    1.303    1.388
 pw_copy_to_array                   577 11.8    1.210    1.331    1.210    1.331
 transfer_pw2rs_30                   58 12.0    0.784    0.854    1.195    1.278
 pw_poisson_rebuild                  58  9.0    0.000    0.000    1.149    1.173
 ps_wavelet_create                    1 10.0    0.000    0.000    1.149    1.173
 RS_z_slice_distribution              1 11.0    0.989    1.073    1.149    1.173
 calc_screening_functions             1 10.0    0.730    0.741    1.066    1.079
 pw_integral_ab_c1d_c1d_gs           58  9.0    0.851    0.859    0.965    1.057
 transfer_rs2pw_90                   58  9.0    0.250    0.285    0.887    1.021
 calculate_rho_atom                 116  9.0    0.276    0.960    0.276    0.960
 pw_copy_from_array                 632 12.1    0.769    0.945    0.769    0.945
 transfer_rs2pw_30                   58  9.0    0.450    0.477    0.920    0.943
 mp_sum_dm                          932  7.6    0.485    0.870    0.485    0.870
 mp_sum_dv                         3421 11.7    0.758    0.815    0.758    0.815
 mp_sendrecv_dv                    5452 10.0    0.660    0.697    0.660    0.697
 mp_isend_dv                       7398 11.7    0.394    0.696    0.394    0.696
 mp2_gpw_main                         1  4.0    0.000    0.000    0.628    0.638
 pw_zero                            344 10.3    0.551    0.604    0.551    0.604
 powell_optimize                 238715 11.0    0.596    0.604    0.596    0.604
 init_scf_run                         1  3.0    0.000    0.000    0.595    0.596
 scf_env_initial_rho_setup            1  4.0    0.000    0.000    0.587    0.588
 mp_irecv_dm3                      2100 11.5    0.319    0.576    0.319    0.576
 rs_gather_matrices                  58 10.0    0.001    0.002    0.487    0.576
 grid_integrate_task_list            58 10.0    0.079    0.564    0.079    0.564
 qs_scf_new_mos                      57  5.0    0.001    0.001    0.491    0.493
 calc_pair_dist_radii                 1 10.0    0.202    0.204    0.463    0.470
 rpa_ri_compute_en                    1  5.0    0.000    0.000    0.460    0.460
 rpa_num_int                          1  6.0    0.001    0.001    0.456    0.457
 qs_init_subsys                       1  2.0    0.004    0.004    0.441    0.442
 Vh_1c_gg_integrals                  58  8.0    0.009    0.175    0.320    0.438
 transfer_pw2rs_10                   58 12.0    0.199    0.210    0.418    0.434
 qs_env_setup                         1  3.0    0.000    0.000    0.433    0.434
 qs_env_rebuild_pw_env                2  3.5    0.000    0.000    0.431    0.433
 pw_env_rebuild                       1  5.0    0.001    0.001    0.431    0.432
 pw_grid_setup                        4  6.0    0.000    0.000    0.415    0.416
 pw_grid_setup_internal               4  7.0    0.010    0.014    0.415    0.416
 mp_isend_dm3                      2100 11.5    0.185    0.382    0.185    0.382
 fft_wrap_pw1pw2_30                 116 10.5    0.014    0.016    0.333    0.349
 cp_fm_syevd                         63  7.0    0.000    0.001    0.334    0.335
 mp_isendrecv_dv                  10904 12.0    0.176    0.335    0.176    0.335
 mp2_main_alloc_hfx                   1  4.0    0.163    0.330    0.163    0.330
 mp_sum_i                            19  9.5    0.167    0.329    0.167    0.329
 restraint_control                    1  2.0    0.000    0.000    0.166    0.328
 pw_grid_sort                         4  8.0    0.222    0.226    0.317    0.321
 mp_max_i                           575  2.7    0.181    0.313    0.181    0.313
 scale_and_distribute               116 10.0    0.289    0.308    0.289    0.308
 eigensolver_symm                    58  6.0    0.002    0.002    0.293    0.294
 cp_fm_redistribute_end              63  8.0    0.158    0.289    0.162    0.292
 transfer_rs2pw_10                   58  9.0    0.094    0.100    0.284    0.290
 cp_fm_syevd_base                    63  8.0    0.128    0.258    0.128    0.258
 compute_GW_self_energy             100  7.0    0.001    0.001    0.209    0.224
 pw_scale                           229  9.5    0.150    0.197    0.150    0.197
 compute_GW_self_energy_deep        100  8.0    0.064    0.079    0.150    0.165
 create_qs_kind_set                   1  2.0    0.000    0.000    0.153    0.154
 read_qs_kind                         2  3.0    0.071    0.075    0.153    0.154
 mp2_ri_gpw_compute_in                1  5.0    0.000    0.000    0.151    0.151
 mixing_init                          1  5.0    0.146    0.149    0.149    0.149
 mp2_ri_gpw_compute_in_loop           1  6.0    0.000    0.000    0.147    0.147
 parallel_gemm_fm                   334  8.6    0.000    0.000    0.139    0.143
 parallel_gemm_fm_gemm              334  9.6    0.000    0.000    0.139    0.143
 cp_fm_gemm                         334 10.6    0.139    0.142    0.139    0.142
 calculate_dm_sparse                 57  6.0    0.000    0.001    0.139    0.142
 cp_dbcsr_plus_fm_fm_t               57  7.0    0.001    0.001    0.139    0.141
 rpa_num_int_RPA_matrix_operati     100  7.0    0.001    0.002    0.138    0.138
 contract_B_L                         4  7.0    0.001    0.001    0.124    0.136
 scf_post_calculation_gpw             1  3.0    0.000    0.000    0.108    0.108
 write_available_results              1  4.0    0.000    0.000    0.108    0.108
 write_mo_free_results                1  5.0    0.013    0.014    0.108    0.108
 dbcsr_multiply_generic              86  8.1    0.004    0.004    0.102    0.105
 fft_wrap_pw1pw2_10                 116 10.5    0.003    0.003    0.083    0.099
 sort_shells                          4  9.0    0.095    0.096    0.095    0.096
 dbcsr_complete_redistribute        198  8.4    0.008    0.009    0.089    0.091
 start_bse_calculation                1  7.0    0.000    0.000    0.091    0.091
 calc_mat_Q                         100  8.0    0.000    0.000    0.087    0.090
 contract_S_to_Q                    100  9.0    0.000    0.000    0.086    0.090
 qs_energies_init_hamiltonians        1  3.0    0.000    0.000    0.087    0.087
 parser_read_line                 14022  4.0    0.005    0.005    0.082    0.085
 build_core_hamiltonian_matrix        1  4.0    0.000    0.000    0.083    0.083
 xc_pw_smooth                        57 10.0    0.000    0.000    0.059    0.083
 overlap_condnum                      1  5.0    0.000    0.000    0.081    0.081
 parser_read_line_low                20  5.0    0.010    0.032    0.077    0.080
 update_ks_atom                      58  8.0    0.007    0.011    0.065    0.079
 mp_cart_create                     344 10.5    0.063    0.076    0.064    0.076
 copy_dbcsr_to_fm                    80  6.4    0.001    0.002    0.074    0.076
 broadcast_input_information         20  6.0    0.021    0.023    0.067    0.076
 cp_fm_to_fm_submat_general         112 10.1    0.066    0.070    0.066    0.070
 mp_bcast_dm                        580  9.0    0.058    0.070    0.058    0.070
 calculate_rho_atom_coeff            58  6.0    0.009    0.016    0.068    0.068
 dbt_total                            8  8.0    0.000    0.000    0.067    0.067
 dbt_contract                         4  9.0    0.001    0.001    0.063    0.063
 mp_irecv_dv                       7320 11.7    0.025    0.061    0.025    0.061
 dbt_pgrid_create_expert             84 10.8    0.000    0.000    0.048    0.061
 arnoldi_conjugate_gradient           5  6.0    0.002    0.002    0.055    0.055
 mp_sum_l                           850  5.7    0.037    0.053    0.037    0.053
 cp_fm_cholesky_invert              101  8.0    0.051    0.053    0.051    0.053
 pw_grid_assign                       4  8.0    0.050    0.051    0.051    0.053
 copy_fm_to_dbcsr                   118  8.1    0.000    0.000    0.050    0.052
 diagonalize_C                        1  8.0    0.000    0.000    0.051    0.052
 mp2_eri_3c_integrate                 1  7.0    0.000    0.000    0.013    0.051
 integrate_set_3c                    93  8.0    0.012    0.047    0.012    0.051
 make_m2s                           172  9.1    0.003    0.003    0.049    0.050
 cp_fm_redistribute_start            63  8.0    0.036    0.039    0.044    0.050
 offload_free_buffer                 66  8.3    0.043    0.049    0.043    0.049
 hirshfeld_integration                1  6.0    0.001    0.002    0.048    0.049
 dbt_tas_multiply                     8 11.5    0.000    0.000    0.048    0.048
 dbt_tas_total                        8 12.5    0.001    0.002    0.048    0.048
 calculate_rho0_atom                116  9.0    0.044    0.046    0.044    0.046
 calculate_hirshfeld_normalizat       1  6.0    0.001    0.003    0.044    0.046
 compute_Erpa_by_freq_int           100  8.0    0.001    0.001    0.045    0.045
 cp_fm_cholesky_decompose           102  9.0    0.043    0.043    0.043    0.043
 cp_fm_power                          2  7.5    0.000    0.001    0.040    0.040
 dbcsr_desymmetrize_deep             82  7.4    0.002    0.002    0.035    0.037
 multiply_cannon                     86  9.1    0.006    0.007    0.034    0.035
 integrate_four_center_load          58 10.0    0.000    0.001    0.021    0.035
 hfx_load_balance                     1 11.0    0.000    0.000    0.020    0.034
 mp_bcast_i_src                      80  7.0    0.025    0.034    0.025    0.034
 vxc_of_r_new                       114  9.0    0.001    0.005    0.003    0.034
 dbcsr_sym_matrix_vector_mult       214  7.0    0.003    0.004    0.030    0.033
 hfx_load_balance_range               1 12.0    0.000    0.000    0.016    0.030
 dbcsr_finalize                    1431 10.7    0.006    0.009    0.019    0.030
 mp_comm_split_direct                48 14.5    0.020    0.029    0.020    0.029
 create_hermitian_form_of_ABBA        1  8.0    0.000    0.000    0.029    0.029
 mp_alltoall_i11v                   676  9.3    0.028    0.028    0.028    0.028
 mp_bcast_am_src                     20  7.0    0.017    0.019    0.021    0.027
 mp_maxloc_dv                      1517  1.0    0.024    0.026    0.024    0.026
 postprocess_bse                      1  9.0    0.000    0.000    0.024    0.024
 mp2_main_free_hfx                    1  4.0    0.010    0.024    0.010    0.024
 integrate_four_center_getP          58 10.0    0.004    0.005    0.022    0.023
 make_images                        172 10.1    0.005    0.005    0.022    0.023
 multiply_cannon_loop                86 10.1    0.005    0.005    0.021    0.022
 integrate_four_center_dist_KS       58 10.0    0.005    0.005    0.021    0.022
 dbcsr_add_d                        366  7.3    0.000    0.001    0.005    0.021
 dbcsr_add_anytype                  366  8.3    0.001    0.003    0.004    0.021
 hybrid_alltoall_any                254 10.9    0.002    0.002    0.020    0.021
 pw_grid_remap                        4  8.0    0.008    0.008    0.017    0.020
 dbt_tas_distribution_new           100 11.9    0.012    0.012    0.020    0.020
 dbt_distribution_new_expert         76 10.1    0.001    0.001    0.019    0.020
 dbt_tas_estimate_result_nze          4 12.0    0.000    0.000    0.019    0.020
 mp_alltoall_i22                    280  9.1    0.015    0.019    0.015    0.019
 -------------------------------------------------------------------------------

 The number of warnings for this run is : 1
 
 -------------------------------------------------------------------------------
  **** **** ******  **  PROGRAM ENDED AT                 2025-03-26 06:15:52.677
 ***** ** ***  *** **   PROGRAM RAN ON                              i05r08c02s09
 **    ****   ******    PROGRAM RAN BY                                   di38fab
 ***** **    ** ** **   PROGRAM PROCESS ID                                259277
  **** **  *******  **  PROGRAM STOPPED IN /hppfs/scratch/04/di38fab/05_MOL/W4-1
                                           1+ALK/sih4/SZV/GW+BSE/1e-4
