 DBCSR| CPU Multiplication driver                                           BLAS (U)
 DBCSR| Multrec recursion limit                                              512 (U)
 DBCSR| Multiplication stack size                                           1000 (D)
 DBCSR| Maximum elements for images                                    UNLIMITED (U)
 DBCSR| Multiplicative factor virtual images                                   1 (U)
 DBCSR| Use multiplication densification                                       T (D)
 DBCSR| Multiplication size stacks                                             3 (U)
 DBCSR| Use memory pool for CPU allocation                                     F (U)
 DBCSR| Number of 3D layers                                               SINGLE (U)
 DBCSR| Use MPI memory allocation                                              F (U)
 DBCSR| Use RMA algorithm                                                      F (U)
 DBCSR| Use Communication thread                                               T (U)
 DBCSR| Communication thread load                                             75 (D)
 DBCSR| MPI: My process id                                                     0
 DBCSR| MPI: Number of processes                                              48
 DBCSR| OMP: Current number of threads                                         4
 DBCSR| OMP: Max number of threads                                             4
 DBCSR| Split modifier for TAS multiplication algorithm                  1.0E+00 (U)


  **** **** ******  **  PROGRAM STARTED AT               2025-03-19 00:29:35.388
 ***** ** ***  *** **   PROGRAM STARTED ON                          i02r08c05s12
 **    ****   ******    PROGRAM STARTED BY                               di38fab
 ***** **    ** ** **   PROGRAM PROCESS ID                               1948219
  **** **  *******  **  PROGRAM STARTED IN /hppfs/scratch/04/di38fab/05_MOL/W4-1
                                           1+ALK/p4/aug-cc-pV5Z/GW+BSE

 CP2K| version string:                 CP2K version 2025.1 (Development Version)
 CP2K| source code revision number:                                  git:d2e611a
 CP2K| cp2kflags: omp libint fftw3 libxc parallel scalapack max_contr=4         
 CP2K| is freely available from                            https://www.cp2k.org/
 CP2K| Program compiled at                       Thu 06 Mar 2025 05:09:20 PM CET
 CP2K| Program compiled on                                               login02
 CP2K| Program compiled for                                        Supermuc-foss
 CP2K| Data directory path                  /hppfs/work/pn36zo/di38fab/cp2k/data
 CP2K| Input file name                                                    GW.inp

 GLOBAL| Force Environment number                                              1
 GLOBAL| Basis set file name            /hppfs/scratch/04/di38fab/04_TMD/BASIS_A
 GLOBAL| Potential file name            /hppfs/work/pn36zo/di38fab/cp2k/data/ALL
 GLOBAL| MM Potential file name                                     MM_POTENTIAL
 GLOBAL| Coordinate file name                                      __STD_INPUT__
 GLOBAL| Method name                                                        CP2K
 GLOBAL| Project name                                                       MoS2
 GLOBAL| Run type                                                         ENERGY
 GLOBAL| FFT library                                                       FFTW3
 GLOBAL| Diagonalization library                                       ScaLAPACK
 GLOBAL| DGEMM library                                                      BLAS
 GLOBAL| Orthonormality check for eigenvectors                          DISABLED
 GLOBAL| Matrix multiplication library                                 ScaLAPACK
 GLOBAL| All-to-all communication in single precision                          F
 GLOBAL| FFTs using library dependent lengths                                  F
 GLOBAL| Grid backend                                                       AUTO
 GLOBAL| Global print level                                               MEDIUM
 GLOBAL| MPI I/O enabled                                                       T
 GLOBAL| Total number of message passing processes                            48
 GLOBAL| Number of threads for this process                                    4
 GLOBAL| This output is from process                                           0
 GLOBAL| OpenMP stack size per thread (OMP_STACKSIZE)                    default
 GLOBAL| CPU model name             Intel(R) Xeon(R) Platinum 8174 CPU @ 3.10GHz

 MEMORY| system memory details [Kb]
 MEMORY|                        rank 0           min           max       average
 MEMORY| MemTotal             98436664      98436664      98436708      98436686
 MEMORY| MemFree              84087832      83841204      84148940      84012925
 MEMORY| Buffers                     0             0             0             0
 MEMORY| Cached                2416404       2380076       2424620       2409698
 MEMORY| Slab                  1246544       1190148       1247200       1232023
 MEMORY| SReclaimable           275256        266592        275736        271116
 MEMORY| MemLikelyFree        86779492      86532416      86795896      86693739


 *** Fundamental physical constants (SI units) ***

 *** Literature: B. J. Mohr and B. N. Taylor,
 ***             CODATA recommended values of the fundamental physical
 ***             constants: 2006, Web Version 5.1
 ***             http://physics.nist.gov/constants

 Speed of light in vacuum [m/s]                             2.99792458000000E+08
 Magnetic constant or permeability of vacuum [N/A**2]       1.25663706143592E-06
 Electric constant or permittivity of vacuum [F/m]          8.85418781762039E-12
 Planck constant (h) [J*s]                                  6.62606896000000E-34
 Planck constant (h-bar) [J*s]                              1.05457162825177E-34
 Elementary charge [C]                                      1.60217648700000E-19
 Electron mass [kg]                                         9.10938215000000E-31
 Electron g factor [ ]                                     -2.00231930436220E+00
 Proton mass [kg]                                           1.67262163700000E-27
 Fine-structure constant                                    7.29735253760000E-03
 Rydberg constant [1/m]                                     1.09737315685270E+07
 Avogadro constant [1/mol]                                  6.02214179000000E+23
 Boltzmann constant [J/K]                                   1.38065040000000E-23
 Atomic mass unit [kg]                                      1.66053878200000E-27
 Bohr radius [m]                                            5.29177208590000E-11

 *** Conversion factors ***

 [u] -> [a.u.]                                              1.82288848426455E+03
 [Angstrom] -> [Bohr] = [a.u.]                              1.88972613288564E+00
 [a.u.] = [Bohr] -> [Angstrom]                              5.29177208590000E-01
 [a.u.] -> [s]                                              2.41888432650478E-17
 [a.u.] -> [fs]                                             2.41888432650478E-02
 [a.u.] -> [J]                                              4.35974393937059E-18
 [a.u.] -> [N]                                              8.23872205491840E-08
 [a.u.] -> [K]                                              3.15774647902944E+05
 [a.u.] -> [kJ/mol]                                         2.62549961709828E+03
 [a.u.] -> [kcal/mol]                                       6.27509468713739E+02
 [a.u.] -> [Pa]                                             2.94210107994716E+13
 [a.u.] -> [bar]                                            2.94210107994716E+08
 [a.u.] -> [atm]                                            2.90362800883016E+08
 [a.u.] -> [eV]                                             2.72113838565563E+01
 [a.u.] -> [Hz]                                             6.57968392072181E+15
 [a.u.] -> [1/cm] (wave numbers)                            2.19474631370540E+05
 [a.u./Bohr**2] -> [1/cm]                                   5.14048714338585E+03
 

 CELL_TOP| Volume [angstrom^3]:                                     27000.000000
 CELL_TOP| Vector a [angstrom    30.000     0.000     0.000   |a| =    30.000000
 CELL_TOP| Vector b [angstrom     0.000    30.000     0.000   |b| =    30.000000
 CELL_TOP| Vector c [angstrom     0.000     0.000    30.000   |c| =    30.000000
 CELL_TOP| Angle (b,c), alpha [degree]:                                90.000000
 CELL_TOP| Angle (a,c), beta  [degree]:                                90.000000
 CELL_TOP| Angle (a,b), gamma [degree]:                                90.000000
 CELL_TOP| Numerically orthorhombic:                                         YES
 CELL_TOP| Periodicity                                                      NONE

 GENERATE|  Preliminary Number of Bonds generated:                             0
 GENERATE|  Achieved consistency in connectivity generation.

 CELL| Volume [angstrom^3]:                                         27000.000000
 CELL| Vector a [angstrom]:      30.000     0.000     0.000   |a| =    30.000000
 CELL| Vector b [angstrom]:       0.000    30.000     0.000   |b| =    30.000000
 CELL| Vector c [angstrom]:       0.000     0.000    30.000   |c| =    30.000000
 CELL| Angle (b,c), alpha [degree]:                                    90.000000
 CELL| Angle (a,c), beta  [degree]:                                    90.000000
 CELL| Angle (a,b), gamma [degree]:                                    90.000000
 CELL| Numerically orthorhombic:                                             YES
 CELL| Periodicity                                                          NONE

 CELL_REF| Volume [angstrom^3]:                                     27000.000000
 CELL_REF| Vector a [angstrom    30.000     0.000     0.000   |a| =    30.000000
 CELL_REF| Vector b [angstrom     0.000    30.000     0.000   |b| =    30.000000
 CELL_REF| Vector c [angstrom     0.000     0.000    30.000   |c| =    30.000000
 CELL_REF| Angle (b,c), alpha [degree]:                                90.000000
 CELL_REF| Angle (a,c), beta  [degree]:                                90.000000
 CELL_REF| Angle (a,b), gamma [degree]:                                90.000000
 CELL_REF| Numerically orthorhombic:                                         YES
 CELL_REF| Periodicity                                                      NONE

 *******************************************************************************
 *******************************************************************************
 **                                                                           **
 **     #####                         ##              ##                      **
 **    ##   ##            ##          ##              ##                      **
 **   ##     ##                       ##            ######                    **
 **   ##     ##  ##   ##  ##   #####  ##  ##   ####   ##    #####    #####    **
 **   ##     ##  ##   ##  ##  ##      ## ##   ##      ##   ##   ##  ##   ##   **
 **   ##  ## ##  ##   ##  ##  ##      ####     ###    ##   ######   ######    **
 **    ##  ###   ##   ##  ##  ##      ## ##      ##   ##   ##       ##        **
 **     #######   #####   ##   #####  ##  ##  ####    ##    #####   ##        **
 **           ##                                                    ##        **
 **                                                                           **
 **                                                ... make the atoms dance   **
 **                                                                           **
 **            Copyright (C) by CP2K developers group (2000-2025)             **
 **                      J. Chem. Phys. 152, 194103 (2020)                    **
 **                                                                           **
 *******************************************************************************

 DFT| Spin restricted Kohn-Sham (RKS) calculation                            RKS
 DFT| Multiplicity                                                             1
 DFT| Number of spin states                                                    1
 DFT| Charge                                                                   0
 DFT| Self-interaction correction (SIC)                                       NO
 DFT| Cutoffs: density                                              1.000000E-10
 DFT|          gradient                                             1.000000E-10
 DFT|          tau                                                  1.000000E-10
 DFT|          cutoff_smoothing_range                               0.000000E+00
 DFT| XC density smoothing                                                  NONE
 DFT| XC derivatives                                                          PW

 FUNCTIONAL| PBE:
 FUNCTIONAL| J.P.Perdew, K.Burke, M.Ernzerhof, Phys. Rev. Letter, vol. 77, n 18,
 FUNCTIONAL|  pp. 3865-3868, (1996)sx=0.750sc=1.000{spin unpolarized}           


 QS| Method:                                                                GAPW
 QS| Density plane wave grid type                        NON-SPHERICAL FULLSPACE
 QS| Number of grid levels:                                                    4
 QS| Density cutoff [a.u.]:                                                250.0
 QS| Multi grid cutoff [a.u.]: 1) grid level                               250.0
 QS|                           2) grid level                                83.3
 QS|                           3) grid level                                27.8
 QS|                           4) grid level                                 9.3
 QS| Grid level progression factor:                                          3.0
 QS| Relative density cutoff [a.u.]:                                        50.0
 QS| Interaction thresholds: eps_pgf_orb:                                1.0E-12
 QS|                         eps_filter_matrix:                          0.0E+00
 QS|                         eps_core_charge:                            1.0E-14
 QS|                         eps_rho_gspace:                             1.0E-12
 QS|                         eps_rho_rspace:                             1.0E-12
 QS|                         eps_gvg_rspace:                             1.0E-06
 QS|                         eps_ppl:                                    1.0E-02
 QS|                         eps_ppnl:                                   1.0E-08
 QS| GAPW|      One center basis from orbital basis primitives
 QS| GAPW|                   eps_fit:                                    1.0E-04
 QS| GAPW|                   eps_iso:                                    1.0E-12
 QS| GAPW|                   eps_svd:                                    1.0E-08
 QS| GAPW|                   eps_cpc:                                    1.0E-12
 QS| GAPW|   atom-r-grid: quadrature:                                     GC_LOG
 QS| GAPW|      atom-s-grid:  max l :                                         10
 QS| GAPW|      max_l_rho0 :                                                   2


 ATOMIC KIND INFORMATION

  1. Atomic kind: P                                     Number of atoms:       4

     Orbital Basis Set                                               aug-cc-pV5Z

       Number of orbital shell sets:                                          12
       Number of orbital shells:                                              29
       Number of primitive Cartesian functions:                               48
       Number of Cartesian basis functions:                                  186
       Number of spherical basis functions:                                  131
       Norm type:                                                              2

       Normalised Cartesian orbitals:

                        Set   Shell   Orbital            Exponent    Coefficient

                          1       1    1px               0.025300       0.014383
                          1       1    1py               0.025300       0.014383
                          1       1    1pz               0.025300       0.014383

                          2       1    1s                0.033500       0.055808

                          3       1    1dx2              0.062400       0.012823
                          3       1    1dxy              0.062400       0.022210
                          3       1    1dxz              0.062400       0.022210
                          3       1    1dy2              0.062400       0.012823
                          3       1    1dyz              0.062400       0.022210
                          3       1    1dz2              0.062400       0.012823

                          4       1    1px            2010.000000       4.142072
                                                       476.300000       5.948058
                                                       154.400000       7.893129
                                                        58.510000       9.223188
                                                        24.400000       9.164869
                                                        10.800000       7.027532
                                                         4.913000       3.821855
                                                         2.269000       1.255056
                                                         1.043000       0.157305
                                                         0.431300       0.003038
                                                         0.176700       0.000082
                                                         0.070090      -0.000002
                          4       1    1py            2010.000000       4.142072
                                                       476.300000       5.948058
                                                       154.400000       7.893129
                                                        58.510000       9.223188
                                                        24.400000       9.164869
                                                        10.800000       7.027532
                                                         4.913000       3.821855
                                                         2.269000       1.255056
                                                         1.043000       0.157305
                                                         0.431300       0.003038
                                                         0.176700       0.000082
                                                         0.070090      -0.000002
                          4       1    1pz            2010.000000       4.142072
                                                       476.300000       5.948058
                                                       154.400000       7.893129
                                                        58.510000       9.223188
                                                        24.400000       9.164869
                                                        10.800000       7.027532
                                                         4.913000       3.821855
                                                         2.269000       1.255056
                                                         1.043000       0.157305
                                                         0.431300       0.003038
                                                         0.176700       0.000082
                                                         0.070090      -0.000002

                          4       2    2px            2010.000000       0.000000
                                                       476.300000       0.000000
                                                       154.400000       0.000000
                                                        58.510000       0.000000
                                                        24.400000       0.000000
                                                        10.800000       0.000000
                                                         4.913000       0.000000
                                                         2.269000       0.000000
                                                         1.043000       1.502434
                                                         0.431300       0.000000
                                                         0.176700       0.000000
                                                         0.070090       0.000000
                          4       2    2py            2010.000000       0.000000
                                                       476.300000       0.000000
                                                       154.400000       0.000000
                                                        58.510000       0.000000
                                                        24.400000       0.000000
                                                        10.800000       0.000000
                                                         4.913000       0.000000
                                                         2.269000       0.000000
                                                         1.043000       1.502434
                                                         0.431300       0.000000
                                                         0.176700       0.000000
                                                         0.070090       0.000000
                          4       2    2pz            2010.000000       0.000000
                                                       476.300000       0.000000
                                                       154.400000       0.000000
                                                        58.510000       0.000000
                                                        24.400000       0.000000
                                                        10.800000       0.000000
                                                         4.913000       0.000000
                                                         2.269000       0.000000
                                                         1.043000       1.502434
                                                         0.431300       0.000000
                                                         0.176700       0.000000
                                                         0.070090       0.000000

                          4       3    3px            2010.000000       0.000000
                                                       476.300000       0.000000
                                                       154.400000       0.000000
                                                        58.510000       0.000000
                                                        24.400000       0.000000
                                                        10.800000       0.000000
                                                         4.913000       0.000000
                                                         2.269000       0.000000
                                                         1.043000       0.000000
                                                         0.431300       0.498212
                                                         0.176700       0.000000
                                                         0.070090       0.000000
                          4       3    3py            2010.000000       0.000000
                                                       476.300000       0.000000
                                                       154.400000       0.000000
                                                        58.510000       0.000000
                                                        24.400000       0.000000
                                                        10.800000       0.000000
                                                         4.913000       0.000000
                                                         2.269000       0.000000
                                                         1.043000       0.000000
                                                         0.431300       0.498212
                                                         0.176700       0.000000
                                                         0.070090       0.000000
                          4       3    3pz            2010.000000       0.000000
                                                       476.300000       0.000000
                                                       154.400000       0.000000
                                                        58.510000       0.000000
                                                        24.400000       0.000000
                                                        10.800000       0.000000
                                                         4.913000       0.000000
                                                         2.269000       0.000000
                                                         1.043000       0.000000
                                                         0.431300       0.498212
                                                         0.176700       0.000000
                                                         0.070090       0.000000

                          4       4    4px            2010.000000      -0.981145
                                                       476.300000      -1.422046
                                                       154.400000      -1.880071
                                                        58.510000      -2.237028
                                                        24.400000      -2.249148
                                                        10.800000      -1.790892
                                                         4.913000      -0.985344
                                                         2.269000      -0.371027
                                                         1.043000       0.078218
                                                         0.431300       0.186642
                                                         0.176700       0.083135
                                                         0.070090       0.011058
                          4       4    4py            2010.000000      -0.981145
                                                       476.300000      -1.422046
                                                       154.400000      -1.880071
                                                        58.510000      -2.237028
                                                        24.400000      -2.249148
                                                        10.800000      -1.790892
                                                         4.913000      -0.985344
                                                         2.269000      -0.371027
                                                         1.043000       0.078218
                                                         0.431300       0.186642
                                                         0.176700       0.083135
                                                         0.070090       0.011058
                          4       4    4pz            2010.000000      -0.981145
                                                       476.300000      -1.422046
                                                       154.400000      -1.880071
                                                        58.510000      -2.237028
                                                        24.400000      -2.249148
                                                        10.800000      -1.790892
                                                         4.913000      -0.985344
                                                         2.269000      -0.371027
                                                         1.043000       0.078218
                                                         0.431300       0.186642
                                                         0.176700       0.083135
                                                         0.070090       0.011058

                          4       5    5px            2010.000000       0.000000
                                                       476.300000       0.000000
                                                       154.400000       0.000000
                                                        58.510000       0.000000
                                                        24.400000       0.000000
                                                        10.800000       0.000000
                                                         4.913000       0.000000
                                                         2.269000       0.000000
                                                         1.043000       0.000000
                                                         0.431300       0.000000
                                                         0.176700       0.163300
                                                         0.070090       0.000000
                          4       5    5py            2010.000000       0.000000
                                                       476.300000       0.000000
                                                       154.400000       0.000000
                                                        58.510000       0.000000
                                                        24.400000       0.000000
                                                        10.800000       0.000000
                                                         4.913000       0.000000
                                                         2.269000       0.000000
                                                         1.043000       0.000000
                                                         0.431300       0.000000
                                                         0.176700       0.163300
                                                         0.070090       0.000000
                          4       5    5pz            2010.000000       0.000000
                                                       476.300000       0.000000
                                                       154.400000       0.000000
                                                        58.510000       0.000000
                                                        24.400000       0.000000
                                                        10.800000       0.000000
                                                         4.913000       0.000000
                                                         2.269000       0.000000
                                                         1.043000       0.000000
                                                         0.431300       0.000000
                                                         0.176700       0.163300
                                                         0.070090       0.000000

                          4       6    6px            2010.000000       0.000000
                                                       476.300000       0.000000
                                                       154.400000       0.000000
                                                        58.510000       0.000000
                                                        24.400000       0.000000
                                                        10.800000       0.000000
                                                         4.913000       0.000000
                                                         2.269000       0.000000
                                                         1.043000       0.000000
                                                         0.431300       0.000000
                                                         0.176700       0.000000
                                                         0.070090       0.051406
                          4       6    6py            2010.000000       0.000000
                                                       476.300000       0.000000
                                                       154.400000       0.000000
                                                        58.510000       0.000000
                                                        24.400000       0.000000
                                                        10.800000       0.000000
                                                         4.913000       0.000000
                                                         2.269000       0.000000
                                                         1.043000       0.000000
                                                         0.431300       0.000000
                                                         0.176700       0.000000
                                                         0.070090       0.051406
                          4       6    6pz            2010.000000       0.000000
                                                       476.300000       0.000000
                                                       154.400000       0.000000
                                                        58.510000       0.000000
                                                        24.400000       0.000000
                                                        10.800000       0.000000
                                                         4.913000       0.000000
                                                         2.269000       0.000000
                                                         1.043000       0.000000
                                                         0.431300       0.000000
                                                         0.176700       0.000000
                                                         0.070090       0.051406

                          5       1    1s          4666000.000000       0.140784
                                                    698600.000000       0.263432
                                                    159000.000000       0.456730
                                                     45040.000000       0.748603
                                                     14720.000000       1.174282
                                                      5323.000000       1.782565
                                                      2076.000000       2.611138
                                                       861.100000       3.653800
                                                       375.700000       4.784303
                                                       170.800000       5.605065
                                                        80.290000       5.410688
                                                        38.770000       3.675735
                                                        18.930000       1.315290
                                                         8.796000       0.139486
                                                         4.358000      -0.000827
                                                         2.174000       0.002026
                                                         1.095000      -0.000315
                                                         0.440000       0.000059
                                                         0.194500      -0.000017
                                                         0.083760       0.000002

                          5       2    2s          4666000.000000      -0.038219
                                                    698600.000000      -0.071544
                                                    159000.000000      -0.123987
                                                     45040.000000      -0.203441
                                                     14720.000000      -0.319174
                                                      5323.000000      -0.486377
                                                      2076.000000      -0.716325
                                                       861.100000      -1.019575
                                                       375.700000      -1.377726
                                                       170.800000      -1.732958
                                                        80.290000      -1.915196
                                                        38.770000      -1.717212
                                                        18.930000      -0.865541
                                                         8.796000       0.319740
                                                         4.358000       0.908418
                                                         2.174000       0.605977
                                                         1.095000       0.125881
                                                         0.440000       0.003261
                                                         0.194500      -0.000061
                                                         0.083760       0.000032

                          5       3    3s          4666000.000000       0.000000
                                                    698600.000000       0.000000
                                                    159000.000000       0.000000
                                                     45040.000000       0.000000
                                                     14720.000000       0.000000
                                                      5323.000000       0.000000
                                                      2076.000000       0.000000
                                                       861.100000       0.000000
                                                       375.700000       0.000000
                                                       170.800000       0.000000
                                                        80.290000       0.000000
                                                        38.770000       0.000000
                                                        18.930000       0.000000
                                                         8.796000       0.000000
                                                         4.358000       0.000000
                                                         2.174000       0.000000
                                                         1.095000       0.762905
                                                         0.440000       0.000000
                                                         0.194500       0.000000
                                                         0.083760       0.000000

                          5       4    4s          4666000.000000       0.000000
                                                    698600.000000       0.000000
                                                    159000.000000       0.000000
                                                     45040.000000       0.000000
                                                     14720.000000       0.000000
                                                      5323.000000       0.000000
                                                      2076.000000       0.000000
                                                       861.100000       0.000000
                                                       375.700000       0.000000
                                                       170.800000       0.000000
                                                        80.290000       0.000000
                                                        38.770000       0.000000
                                                        18.930000       0.000000
                                                         8.796000       0.000000
                                                         4.358000       0.000000
                                                         2.174000       0.000000
                                                         1.095000       0.000000
                                                         0.440000       0.385034
                                                         0.194500       0.000000
                                                         0.083760       0.000000

                          5       5    5s          4666000.000000       0.000000
                                                    698600.000000       0.000000
                                                    159000.000000       0.000000
                                                     45040.000000       0.000000
                                                     14720.000000       0.000000
                                                      5323.000000       0.000000
                                                      2076.000000       0.000000
                                                       861.100000       0.000000
                                                       375.700000       0.000000
                                                       170.800000       0.000000
                                                        80.290000       0.000000
                                                        38.770000       0.000000
                                                        18.930000       0.000000
                                                         8.796000       0.000000
                                                         4.358000       0.000000
                                                         2.174000       0.000000
                                                         1.095000       0.000000
                                                         0.440000       0.000000
                                                         0.194500       0.208737
                                                         0.083760       0.000000

                          5       6    6s          4666000.000000       0.010502
                                                    698600.000000       0.019644
                                                    159000.000000       0.034082
                                                     45040.000000       0.055842
                                                     14720.000000       0.087778
                                                      5323.000000       0.133494
                                                      2076.000000       0.197250
                                                       861.100000       0.280233
                                                       375.700000       0.381222
                                                       170.800000       0.480164
                                                        80.290000       0.540553
                                                        38.770000       0.492905
                                                        18.930000       0.263390
                                                         8.796000      -0.109900
                                                         4.358000      -0.328674
                                                         2.174000      -0.360360
                                                         1.095000      -0.113308
                                                         0.440000       0.151535
                                                         0.194500       0.128859
                                                         0.083760       0.023815

                          5       7    7s          4666000.000000       0.000000
                                                    698600.000000       0.000000
                                                    159000.000000       0.000000
                                                     45040.000000       0.000000
                                                     14720.000000       0.000000
                                                      5323.000000       0.000000
                                                      2076.000000       0.000000
                                                       861.100000       0.000000
                                                       375.700000       0.000000
                                                       170.800000       0.000000
                                                        80.290000       0.000000
                                                        38.770000       0.000000
                                                        18.930000       0.000000
                                                         8.796000       0.000000
                                                         4.358000       0.000000
                                                         2.174000       0.000000
                                                         1.095000       0.000000
                                                         0.440000       0.000000
                                                         0.194500       0.000000
                                                         0.083760       0.110965

                          6       1    1fx3              0.095000       0.007376
                          6       1    1fx2y             0.095000       0.016494
                          6       1    1fx2z             0.095000       0.016494
                          6       1    1fxy2             0.095000       0.016494
                          6       1    1fxyz             0.095000       0.028568
                          6       1    1fxz2             0.095000       0.016494
                          6       1    1fy3              0.095000       0.007376
                          6       1    1fy2z             0.095000       0.016494
                          6       1    1fyz2             0.095000       0.016494
                          6       1    1fz3              0.095000       0.007376

                          7       1    1dx2              2.656000       9.095123
                                                         1.054000       0.000000
                                                         0.418000       0.000000
                                                         0.166000       0.000000
                          7       1    1dxy              2.656000      15.753215
                                                         1.054000       0.000000
                                                         0.418000       0.000000
                                                         0.166000       0.000000
                          7       1    1dxz              2.656000      15.753215
                                                         1.054000       0.000000
                                                         0.418000       0.000000
                                                         0.166000       0.000000
                          7       1    1dy2              2.656000       9.095123
                                                         1.054000       0.000000
                                                         0.418000       0.000000
                                                         0.166000       0.000000
                          7       1    1dyz              2.656000      15.753215
                                                         1.054000       0.000000
                                                         0.418000       0.000000
                                                         0.166000       0.000000
                          7       1    1dz2              2.656000       9.095123
                                                         1.054000       0.000000
                                                         0.418000       0.000000
                                                         0.166000       0.000000

                          7       2    2dx2              2.656000       0.000000
                                                         1.054000       1.804598
                                                         0.418000       0.000000
                                                         0.166000       0.000000
                          7       2    2dxy              2.656000       0.000000
                                                         1.054000       3.125656
                                                         0.418000       0.000000
                                                         0.166000       0.000000
                          7       2    2dxz              2.656000       0.000000
                                                         1.054000       3.125656
                                                         0.418000       0.000000
                                                         0.166000       0.000000
                          7       2    2dy2              2.656000       0.000000
                                                         1.054000       1.804598
                                                         0.418000       0.000000
                                                         0.166000       0.000000
                          7       2    2dyz              2.656000       0.000000
                                                         1.054000       3.125656
                                                         0.418000       0.000000
                                                         0.166000       0.000000
                          7       2    2dz2              2.656000       0.000000
                                                         1.054000       1.804598
                                                         0.418000       0.000000
                                                         0.166000       0.000000

                          7       3    3dx2              2.656000       0.000000
                                                         1.054000       0.000000
                                                         0.418000       0.357658
                                                         0.166000       0.000000
                          7       3    3dxy              2.656000       0.000000
                                                         1.054000       0.000000
                                                         0.418000       0.619482
                                                         0.166000       0.000000
                          7       3    3dxz              2.656000       0.000000
                                                         1.054000       0.000000
                                                         0.418000       0.619482
                                                         0.166000       0.000000
                          7       3    3dy2              2.656000       0.000000
                                                         1.054000       0.000000
                                                         0.418000       0.357658
                                                         0.166000       0.000000
                          7       3    3dyz              2.656000       0.000000
                                                         1.054000       0.000000
                                                         0.418000       0.619482
                                                         0.166000       0.000000
                          7       3    3dz2              2.656000       0.000000
                                                         1.054000       0.000000
                                                         0.418000       0.357658
                                                         0.166000       0.000000

                          7       4    4dx2              2.656000       0.000000
                                                         1.054000       0.000000
                                                         0.418000       0.000000
                                                         0.166000       0.071056
                          7       4    4dxy              2.656000       0.000000
                                                         1.054000       0.000000
                                                         0.418000       0.000000
                                                         0.166000       0.123072
                          7       4    4dxz              2.656000       0.000000
                                                         1.054000       0.000000
                                                         0.418000       0.000000
                                                         0.166000       0.123072
                          7       4    4dy2              2.656000       0.000000
                                                         1.054000       0.000000
                                                         0.418000       0.000000
                                                         0.166000       0.071056
                          7       4    4dyz              2.656000       0.000000
                                                         1.054000       0.000000
                                                         0.418000       0.000000
                                                         0.166000       0.123072
                          7       4    4dz2              2.656000       0.000000
                                                         1.054000       0.000000
                                                         0.418000       0.000000
                                                         0.166000       0.071056

                          8       1    1gx4              0.184000       0.010585
                          8       1    1gx3y             0.184000       0.028005
                          8       1    1gx3z             0.184000       0.028005
                          8       1    1gx2y2            0.184000       0.036154
                          8       1    1gx2yz            0.184000       0.062621
                          8       1    1gx2z2            0.184000       0.036154
                          8       1    1gxy3             0.184000       0.028005
                          8       1    1gxy2z            0.184000       0.062621
                          8       1    1gxyz2            0.184000       0.062621
                          8       1    1gxz3             0.184000       0.028005
                          8       1    1gy4              0.184000       0.010585
                          8       1    1gy3z             0.184000       0.028005
                          8       1    1gy2z2            0.184000       0.036154
                          8       1    1gyz3             0.184000       0.028005
                          8       1    1gz4              0.184000       0.010585

                          9       1    1fx3              0.923000       1.229301
                                                         0.450000       0.000000
                                                         0.219000       0.000000
                          9       1    1fx2y             0.923000       2.748801
                                                         0.450000       0.000000
                                                         0.219000       0.000000
                          9       1    1fx2z             0.923000       2.748801
                                                         0.450000       0.000000
                                                         0.219000       0.000000
                          9       1    1fxy2             0.923000       2.748801
                                                         0.450000       0.000000
                                                         0.219000       0.000000
                          9       1    1fxyz             0.923000       4.761063
                                                         0.450000       0.000000
                                                         0.219000       0.000000
                          9       1    1fxz2             0.923000       2.748801
                                                         0.450000       0.000000
                                                         0.219000       0.000000
                          9       1    1fy3              0.923000       1.229301
                                                         0.450000       0.000000
                                                         0.219000       0.000000
                          9       1    1fy2z             0.923000       2.748801
                                                         0.450000       0.000000
                                                         0.219000       0.000000
                          9       1    1fyz2             0.923000       2.748801
                                                         0.450000       0.000000
                                                         0.219000       0.000000
                          9       1    1fz3              0.923000       1.229301
                                                         0.450000       0.000000
                                                         0.219000       0.000000

                          9       2    2fx3              0.923000       0.000000
                                                         0.450000       0.244165
                                                         0.219000       0.000000
                          9       2    2fx2y             0.923000       0.000000
                                                         0.450000       0.545969
                                                         0.219000       0.000000
                          9       2    2fx2z             0.923000       0.000000
                                                         0.450000       0.545969
                                                         0.219000       0.000000
                          9       2    2fxy2             0.923000       0.000000
                                                         0.450000       0.545969
                                                         0.219000       0.000000
                          9       2    2fxyz             0.923000       0.000000
                                                         0.450000       0.945645
                                                         0.219000       0.000000
                          9       2    2fxz2             0.923000       0.000000
                                                         0.450000       0.545969
                                                         0.219000       0.000000
                          9       2    2fy3              0.923000       0.000000
                                                         0.450000       0.244165
                                                         0.219000       0.000000
                          9       2    2fy2z             0.923000       0.000000
                                                         0.450000       0.545969
                                                         0.219000       0.000000
                          9       2    2fyz2             0.923000       0.000000
                                                         0.450000       0.545969
                                                         0.219000       0.000000
                          9       2    2fz3              0.923000       0.000000
                                                         0.450000       0.244165
                                                         0.219000       0.000000

                          9       3    3fx3              0.923000       0.000000
                                                         0.450000       0.000000
                                                         0.219000       0.048301
                          9       3    3fx2y             0.923000       0.000000
                                                         0.450000       0.000000
                                                         0.219000       0.108004
                          9       3    3fx2z             0.923000       0.000000
                                                         0.450000       0.000000
                                                         0.219000       0.108004
                          9       3    3fxy2             0.923000       0.000000
                                                         0.450000       0.000000
                                                         0.219000       0.108004
                          9       3    3fxyz             0.923000       0.000000
                                                         0.450000       0.000000
                                                         0.219000       0.187068
                          9       3    3fxz2             0.923000       0.000000
                                                         0.450000       0.000000
                                                         0.219000       0.108004
                          9       3    3fy3              0.923000       0.000000
                                                         0.450000       0.000000
                                                         0.219000       0.048301
                          9       3    3fy2z             0.923000       0.000000
                                                         0.450000       0.000000
                                                         0.219000       0.108004
                          9       3    3fyz2             0.923000       0.000000
                                                         0.450000       0.000000
                                                         0.219000       0.108004
                          9       3    3fz3              0.923000       0.000000
                                                         0.450000       0.000000
                                                         0.219000       0.048301

                         10       1    1hx5              0.372000       0.029827
                         10       1    1hx4y             0.372000       0.089481
                         10       1    1hx4z             0.372000       0.089481
                         10       1    1hx3y2            0.372000       0.136684
                         10       1    1hx3yz            0.372000       0.236744
                         10       1    1hx3z2            0.372000       0.136684
                         10       1    1hx2y3            0.372000       0.136684
                         10       1    1hx2y2z           0.372000       0.305635
                         10       1    1hx2yz2           0.372000       0.305635
                         10       1    1hx2z3            0.372000       0.136684
                         10       1    1hxy4             0.372000       0.089481
                         10       1    1hxy3z            0.372000       0.236744
                         10       1    1hxy2z2           0.372000       0.305635
                         10       1    1hxyz3            0.372000       0.236744
                         10       1    1hxz4             0.372000       0.089481
                         10       1    1hy5              0.372000       0.029827
                         10       1    1hy4z             0.372000       0.089481
                         10       1    1hy3z2            0.372000       0.136684
                         10       1    1hy2z3            0.372000       0.136684
                         10       1    1hyz4             0.372000       0.089481
                         10       1    1hz5              0.372000       0.029827

                         11       1    1gx4              0.903000       0.840576
                                                         0.412000       0.000000
                         11       1    1gx3y             0.903000       2.223954
                                                         0.412000       0.000000
                         11       1    1gx3z             0.903000       2.223954
                                                         0.412000       0.000000
                         11       1    1gx2y2            0.903000       2.871112
                                                         0.412000       0.000000
                         11       1    1gx2yz            0.903000       4.972912
                                                         0.412000       0.000000
                         11       1    1gx2z2            0.903000       2.871112
                                                         0.412000       0.000000
                         11       1    1gxy3             0.903000       2.223954
                                                         0.412000       0.000000
                         11       1    1gxy2z            0.903000       4.972912
                                                         0.412000       0.000000
                         11       1    1gxyz2            0.903000       4.972912
                                                         0.412000       0.000000
                         11       1    1gxz3             0.903000       2.223954
                                                         0.412000       0.000000
                         11       1    1gy4              0.903000       0.840576
                                                         0.412000       0.000000
                         11       1    1gy3z             0.903000       2.223954
                                                         0.412000       0.000000
                         11       1    1gy2z2            0.903000       2.871112
                                                         0.412000       0.000000
                         11       1    1gyz3             0.903000       2.223954
                                                         0.412000       0.000000
                         11       1    1gz4              0.903000       0.840576
                                                         0.412000       0.000000

                         11       2    2gx4              0.903000       0.000000
                                                         0.412000       0.097141
                         11       2    2gx3y             0.903000       0.000000
                                                         0.412000       0.257011
                         11       2    2gx3z             0.903000       0.000000
                                                         0.412000       0.257011
                         11       2    2gx2y2            0.903000       0.000000
                                                         0.412000       0.331800
                         11       2    2gx2yz            0.903000       0.000000
                                                         0.412000       0.574694
                         11       2    2gx2z2            0.903000       0.000000
                                                         0.412000       0.331800
                         11       2    2gxy3             0.903000       0.000000
                                                         0.412000       0.257011
                         11       2    2gxy2z            0.903000       0.000000
                                                         0.412000       0.574694
                         11       2    2gxyz2            0.903000       0.000000
                                                         0.412000       0.574694
                         11       2    2gxz3             0.903000       0.000000
                                                         0.412000       0.257011
                         11       2    2gy4              0.903000       0.000000
                                                         0.412000       0.097141
                         11       2    2gy3z             0.903000       0.000000
                                                         0.412000       0.257011
                         11       2    2gy2z2            0.903000       0.000000
                                                         0.412000       0.331800
                         11       2    2gyz3             0.903000       0.000000
                                                         0.412000       0.257011
                         11       2    2gz4              0.903000       0.000000
                                                         0.412000       0.097141

                         12       1    1hx5              0.745000       0.285005
                         12       1    1hx4y             0.745000       0.855014
                         12       1    1hx4z             0.745000       0.855014
                         12       1    1hx3y2            0.745000       1.306056
                         12       1    1hx3yz            0.745000       2.262155
                         12       1    1hx3z2            0.745000       1.306056
                         12       1    1hx2y3            0.745000       1.306056
                         12       1    1hx2y2z           0.745000       2.920429
                         12       1    1hx2yz2           0.745000       2.920429
                         12       1    1hx2z3            0.745000       1.306056
                         12       1    1hxy4             0.745000       0.855014
                         12       1    1hxy3z            0.745000       2.262155
                         12       1    1hxy2z2           0.745000       2.920429
                         12       1    1hxyz3            0.745000       2.262155
                         12       1    1hxz4             0.745000       0.855014
                         12       1    1hy5              0.745000       0.285005
                         12       1    1hy4z             0.745000       0.855014
                         12       1    1hy3z2            0.745000       1.306056
                         12       1    1hy2z3            0.745000       1.306056
                         12       1    1hyz4             0.745000       0.855014
                         12       1    1hz5              0.745000       0.285005

     RI Auxiliary Basis Set                                    aug-cc-pV5Z-OPTRI

       Number of orbital shell sets:                                          24
       Number of orbital shells:                                              24
       Number of primitive Cartesian functions:                               24
       Number of Cartesian basis functions:                                  195
       Number of spherical basis functions:                                  128
       Norm type:                                                              2

       Normalised Cartesian orbitals:

                        Set   Shell   Orbital            Exponent    Coefficient

                          1       1    1s                0.125489       0.150267

                          2       1    1dx2              0.217657       0.114159
                          2       1    1dxy              0.217657       0.197730
                          2       1    1dxz              0.217657       0.197730
                          2       1    1dy2              0.217657       0.114159
                          2       1    1dyz              0.217657       0.197730
                          2       1    1dz2              0.217657       0.114159

                          3       1    1gx4              0.275347       0.032071
                          3       1    1gx3y             0.275347       0.084851
                          3       1    1gx3z             0.275347       0.084851
                          3       1    1gx2y2            0.275347       0.109542
                          3       1    1gx2yz            0.275347       0.189732
                          3       1    1gx2z2            0.275347       0.109542
                          3       1    1gxy3             0.275347       0.084851
                          3       1    1gxy2z            0.275347       0.189732
                          3       1    1gxyz2            0.275347       0.189732
                          3       1    1gxz3             0.275347       0.084851
                          3       1    1gy4              0.275347       0.032071
                          3       1    1gy3z             0.275347       0.084851
                          3       1    1gy2z2            0.275347       0.109542
                          3       1    1gyz3             0.275347       0.084851
                          3       1    1gz4              0.275347       0.032071

                          4       1    1px               0.277173       0.286668
                          4       1    1py               0.277173       0.286668
                          4       1    1pz               0.277173       0.286668

                          5       1    1s                0.292368       0.283372

                          6       1    1dx2              0.506607       0.500707
                          6       1    1dxy              0.506607       0.867251
                          6       1    1dxz              0.506607       0.867251
                          6       1    1dy2              0.506607       0.500707
                          6       1    1dyz              0.506607       0.867251
                          6       1    1dz2              0.506607       0.500707

                          7       1    1hx5              0.526295       0.092117
                          7       1    1hx4y             0.526295       0.276351
                          7       1    1hx4z             0.526295       0.276351
                          7       1    1hx3y2            0.526295       0.422133
                          7       1    1hx3yz            0.526295       0.731155
                          7       1    1hx3z2            0.526295       0.422133
                          7       1    1hx2y3            0.526295       0.422133
                          7       1    1hx2y2z           0.526295       0.943917
                          7       1    1hx2yz2           0.526295       0.943917
                          7       1    1hx2z3            0.526295       0.422133
                          7       1    1hxy4             0.526295       0.276351
                          7       1    1hxy3z            0.526295       0.731155
                          7       1    1hxy2z2           0.526295       0.943917
                          7       1    1hxyz3            0.526295       0.731155
                          7       1    1hxz4             0.526295       0.276351
                          7       1    1hy5              0.526295       0.092117
                          7       1    1hy4z             0.526295       0.276351
                          7       1    1hy3z2            0.526295       0.422133
                          7       1    1hy2z3            0.526295       0.422133
                          7       1    1hyz4             0.526295       0.276351
                          7       1    1hz5              0.526295       0.092117

                          8       1    1gx4              0.609137       0.284709
                          8       1    1gx3y             0.609137       0.753270
                          8       1    1gx3z             0.609137       0.753270
                          8       1    1gx2y2            0.609137       0.972467
                          8       1    1gx2yz            0.609137       1.684363
                          8       1    1gx2z2            0.609137       0.972467
                          8       1    1gxy3             0.609137       0.753270
                          8       1    1gxy2z            0.609137       1.684363
                          8       1    1gxyz2            0.609137       1.684363
                          8       1    1gxz3             0.609137       0.753270
                          8       1    1gy4              0.609137       0.284709
                          8       1    1gy3z             0.609137       0.753270
                          8       1    1gy2z2            0.609137       0.972467
                          8       1    1gyz3             0.609137       0.753270
                          8       1    1gz4              0.609137       0.284709

                          9       1    1px               0.648425       0.829401
                          9       1    1py               0.648425       0.829401
                          9       1    1pz               0.648425       0.829401

                         10       1    1s                0.659472       0.521564

                         11       1    1ix6              0.772896       0.170268
                         11       1    1ix5y             0.772896       0.564713
                         11       1    1ix5z             0.772896       0.564713
                         11       1    1ix4y2            0.772896       0.978112
                         11       1    1ix4yz            0.772896       1.694140
                         11       1    1ix4z2            0.772896       0.978112
                         11       1    1ix3y3            0.772896       1.157318
                         11       1    1ix3y2z           0.772896       2.587842
                         11       1    1ix3yz2           0.772896       2.587842
                         11       1    1ix3z3            0.772896       1.157318
                         11       1    1ix2y4            0.772896       0.978112
                         11       1    1ix2y3z           0.772896       2.587842
                         11       1    1ix2y2z2          0.772896       3.340890
                         11       1    1ix2yz3           0.772896       2.587842
                         11       1    1ix2z4            0.772896       0.978112
                         11       1    1ixy5             0.772896       0.564713
                         11       1    1ixy4z            0.772896       1.694140
                         11       1    1ixy3z2           0.772896       2.587842
                         11       1    1ixy2z3           0.772896       2.587842
                         11       1    1ixyz4            0.772896       1.694140
                         11       1    1ixz5             0.772896       0.564713
                         11       1    1iy6              0.772896       0.170268
                         11       1    1iy5z             0.772896       0.564713
                         11       1    1iy4z2            0.772896       0.978112
                         11       1    1iy3z3            0.772896       1.157318
                         11       1    1iy2z4            0.772896       0.978112
                         11       1    1iyz5             0.772896       0.564713
                         11       1    1iz6              0.772896       0.170268

                         12       1    1hx5              1.115307       1.057733
                         12       1    1hx4y             1.115307       3.173199
[...]
 https://doi.org/10.1016/j.cpc.2014.10.021

 J. Hutter, M. Iannuzzi, F. Schiffmann, J. VandeVondele.
 WIREs Comput Mol Sci. 4, 15-25 (2014).
 CP2K: atomistic simulations of condensed matter systems.
 https://doi.org/10.1002/wcms.1159

 U. Borstnik, J. VandeVondele, V. Weber, J. Hutter.
 Parallel Comput. 40, 47-58 (2014).
 Sparse matrix multiplication: The distributed block-compressed sparse row 
 library.
 https://doi.org/10.1016/j.parco.2014.03.012

 M. Del Ben, J. Hutter, J. VandeVondele.
 J. Chem. Theory Comput. 9, 2654-2671 (2013).
 Electron Correlation in the Condensed Phase from a Resolution of Identity 
 Approach Based on the Gaussian and Plane Waves Scheme.
 https://doi.org/10.1021/ct4002202

 M. Del Ben, J. Hutter, J. VandeVondele.
 J. Chem. Theory Comput. 8, 4177-4188 (2012).
 Second-Order Moller-Plesset Perturbation Theory in the Condensed Phase: An 
 Efficient and Massively Parallel Gaussian and Plane Waves Approach.
 https://doi.org/10.1021/ct300531w

 M. Guidon, J. Hutter, J. VandeVondele.
 J. Chem. Theory Comput. 5, 3010-3021 (2009).
 Robust Periodic Hartree-Fock Exchange for Large-Scale Simulations Using 
 Gaussian Basis Sets.
 https://doi.org/10.1021/ct900494g

 M. Guidon, F. Schiffmann, J. Hutter, J. VandeVondele.
 J. Chem. Phys. 128, 214104 (2008).
 Ab initio molecular dynamics using hybrid density functionals.
 https://doi.org/10.1063/1.2931945

 L. Genovese, T. Deutsch, S. Goedecker.
 J. Chem. Phys. 127, 054704 (2007).
 Efficient and accurate three-dimensional Poisson solver for surface problems.
 https://doi.org/10.1063/1.2754685

 J. VandeVondele, J. Hutter.
 J. Chem. Phys. 127, 114105 (2007).
 Gaussian basis sets for accurate calculations on molecular systems in gas and 
 condensed phases.
 https://doi.org/10.1063/1.2770708

 L. Genovese, T. Deutsch, A. Neelov, S. Goedecker, G. Beylkin.
 J. Chem. Phys. 125, 074105 (2006).
 Efficient solution of Poisson's equation with free boundary conditions.
 https://doi.org/10.1063/1.2335442

 M. Frigo, S. G. Johnson.
 Proc. IEEE 93, 216-231 (2005).
 The design and implementation of FFTW3.
 https://doi.org/10.1109/JPROC.2004.840301

 M. Krack, M. Parrinello.
 Phys. Chem. Chem. Phys. 2, 2105-2112 (2000).
 All-electron ab-initio molecular dynamics.
 https://doi.org/10.1039/b001167n

 G. Lippert, J. Hutter, M. Parrinello.
 Theor. Chem. Acc. 103, 124-140 (1999).
 The Gaussian and augmented-plane-wave density functional method for ab initio 
 molecular dynamics simulations.
 https://doi.org/10.1007/s002140050523

 J. P. Perdew, K. Burke, M. Ernzerhof.
 Phys. Rev. Lett. 77, 3865-3868 (1996).
 Generalized gradient approximation made simple.
 https://doi.org/10.1103/PhysRevLett.77.3865


 -------------------------------------------------------------------------------
 -                                                                             -
 -                                T I M I N G                                  -
 -                                                                             -
 -------------------------------------------------------------------------------
 SUBROUTINE                       CALLS  ASD         SELF TIME        TOTAL TIME
                                MAXIMUM       AVERAGE  MAXIMUM  AVERAGE  MAXIMUM
 CP2K                                 1  1.0    0.039    0.065 1753.584 1753.585
 qs_energies                          1  2.0    0.000    0.001 1752.294 1752.514
 scf_env_do_scf                       1  3.0    0.000    0.000 1420.510 1420.515
 scf_env_do_scf_inner_loop           64  4.0    0.002    0.004 1420.509 1420.515
 qs_ks_build_kohn_sham_matrix        65  7.0    0.010    0.012 1365.955 1366.043
 qs_ks_update_qs_env                 64  5.0    0.000    0.000 1362.661 1362.748
 rebuild_ks_matrix                   64  6.0    0.000    0.000 1362.647 1362.733
 hfx_ks_matrix                       65  8.0    0.003    0.003 1181.135 1181.331
 integrate_four_center               65  9.0    2.943    4.357 1181.129 1181.318
 mp_sync                            755  9.4  827.679 1141.006  827.679 1141.006
 integrate_four_center_main          65 10.0   27.362  942.876  311.256 1136.968
 integrate_four_center_bin         5761 11.0  283.893 1135.985  283.893 1135.985
 mp2_main                             1  3.0    0.000    0.000  328.909  329.129
 mp2_gpw_main                         1  4.0    0.000    0.000  325.281  325.315
 rpa_ri_compute_en                    1  5.0    0.000    0.002  312.307  312.310
 rpa_num_int                          1  6.0    0.001    0.002  311.670  311.693
 compute_GW_self_energy             100  7.0    0.002    0.002  189.610  190.305
 compute_GW_self_energy_deep        100  8.0  149.831  150.199  189.165  189.860
 start_bse_calculation                1  7.0    0.001    0.002  119.890  119.892
 cp_fm_syevd                         70  7.0    0.001    0.001   96.007   96.065
 cp_fm_redistribute_end              70  8.0   47.989   95.813   48.034   95.818
 cp_fm_syevd_base                    70  8.0   47.641   95.425   47.641   95.425
 fft_wrap_pw1pw2                   1356  9.9    0.030    0.035   78.589   80.614
 fft_wrap_pw1pw2_250                966 11.1    3.304    3.649   75.928   77.693
 fft3d_ps                          1356 11.9   30.517   33.973   63.678   65.623
 parallel_gemm_fm                   349  8.5    0.001    0.001   62.489   63.220
 parallel_gemm_fm_gemm              349  9.5    0.001    0.001   62.488   63.219
 cp_fm_gemm                         349 10.5   62.487   63.218   62.487   63.218
 create_hermitian_form_of_ABBA        1  8.0    0.001    0.001   62.194   62.221
 pw_poisson_solve                    65  8.0    1.159    1.257   56.756   56.786
 diagonalize_C                        1  8.0    0.001    0.002   54.680   54.687
 cp_fm_power                          2  7.5    0.265    0.283   49.691   49.798
 qs_vxc_create                       65  8.0    0.001    0.001   46.032   46.032
 xc_vxc_pw_create                    64  9.0    0.792    0.890   46.031   46.031
 ps_wavelet_solve                    65  9.0   29.239   33.052   37.518   37.786
 calc_screening_functions             1 10.0   35.500   36.515   36.716   37.730
 xc_pw_derive                       384 11.0    0.004    0.006   34.061   35.433
 qs_rho_update_rho_low               65  5.0    0.001    0.001   32.036   32.041
 calculate_rho_elec                  65  6.0    0.635    0.677   31.569   31.574
 mp_alltoall_z22v                  1356 13.9   25.845   29.297   25.845   29.297
 sum_up_and_integrate                65  8.0    0.001    0.001   28.805   29.146
 mp_alltoall_d54                     65 10.0    5.388   29.126    5.388   29.126
 integrate_v_rspace                  65  9.0    0.001    0.002   28.671   29.070
 prepare_gapw_den                    65  8.0    0.001    0.001   26.110   26.258
 density_rs2pw                       65  7.0    0.004    0.005   23.252   24.972
 xc_pw_divergence                    64 10.0    0.002    0.003   23.250   24.659
 xc_rho_set_and_dset_create          64 10.0    0.565    0.723   21.511   23.057
 gspace_mixing                       63  5.0    0.615    0.656   22.356   22.357
 mp_alltoall_d11v                  1376  9.6   15.834   20.671   15.834   20.671
 yz_to_x                            647 12.8    2.118    2.581   15.830   18.766
 x_to_yz                            709 13.1    5.176    5.588   17.309   17.970
 mp_sum_d                          9099  6.8   15.230   17.814   15.230   17.814
 broyden_mixing                      63  6.0   16.479   16.799   16.757   16.839
 transfer_rs2pw                     326  8.4    0.006    0.010   14.667   16.305
 mp_waitany                        8624 11.5   13.985   16.029   13.985   16.029
 rs_gather_matrices                  65 10.0    0.011    0.062   13.097   15.086
 grid_integrate_task_list            65 10.0    1.980   14.970    1.980   14.970
 grid_collocate_task_list            65  7.0    7.305   14.281    7.305   14.281
 calculate_rho_atom                  65  9.0    2.834   14.063    2.834   14.063
 potential_pw2rs                     65 10.0    0.033    0.036   13.592   14.010
 transfer_rs2pw_250                 131 10.0    2.202    2.661   11.931   13.675
 calculate_vxc_atom                  65  8.0    0.041    0.416   13.452   13.453
 mp_sum_dv                        18292  9.2   11.601   13.026   11.601   13.026
 gaVxcgb_GC                          64  9.0    1.071   12.954    1.071   12.954
 mp2_ri_gpw_compute_in                1  5.0    0.008    0.010   12.914   12.917
 mp2_ri_gpw_compute_in_loop           1  6.0    0.000    0.000   12.889   12.890
 contract_B_L                         4  7.0    0.034    0.041    8.005   11.531
 mp2_eri_3c_integrate                 1  7.0    0.014    0.018    4.397   11.457
 integrate_set_3c                  5760  8.0    4.078   10.815    4.383   11.442
 mp_cart_create                     333 10.7    7.143   10.656    7.143   10.656
 dbt_pgrid_create_expert             84 10.8    0.000    0.000    7.124   10.636
 transfer_pw2rs                     326 10.6    0.005    0.006   10.206   10.401
 put_rho0_on_grid                    65  9.0    0.642    0.699    9.839    9.988
 transfer_pw2rs_250                 131 10.9    2.071    2.254    6.739    7.087
 integrate_vhg0_rspace               65  8.0    0.998    1.141    6.576    6.687
 xc_functional_eval                 192 10.9    0.001    0.001    4.074    5.348
 pbe_lda_eval                       192 11.9    4.074    5.347    4.074    5.347
 mp_alltoall_d45                     66 10.0    2.682    5.323    2.682    5.323
 pw_scatter_p                       709 12.1    5.073    5.134    5.073    5.134
 pw_gather_p                        647 11.8    4.275    4.824    4.275    4.824
 qs_scf_new_mos                      64  5.0    0.001    0.001    3.935    3.970
 pw_derive                          579 11.3    3.723    3.948    3.723    3.948
 eigensolver_symm                    65  6.0    0.002    0.003    3.443    3.448
 compute_vec_Sigma_x_minus_vxc_       1  4.0    0.000    0.000    3.319    3.319
 mp_waitall_1                     21538 12.1    2.170    3.275    2.170    3.275
 cp_fm_syrk                           2  8.5    2.682    2.705    2.682    2.705
 calculate_rho0_atom                 65  9.0    2.397    2.593    2.397    2.593
 cp2k_distribution_to_z_slices       65  9.0    1.205    1.282    2.294    2.451
 mp_sum_dm                          849  7.6    2.039    2.412    2.039    2.412
 fft_wrap_pw1pw2_90                 130 10.5    0.097    0.120    2.125    2.385
 pw_copy                            970 10.6    2.216    2.354    2.216    2.354
 transfer_pw2rs_90                   65 12.0    0.447    0.507    1.627    2.121
 pw_poisson_set                      66  8.9    0.002    0.003    2.065    2.095
 rs_grid_zero                       327 11.1    2.027    2.081    2.027    2.081
 powell_optimize                 810747 11.0    2.004    2.055    2.004    2.055
 qs_energies_init_hamiltonians        1  3.0    0.000    0.000    1.957    1.957
 build_core_hamiltonian_matrix        1  4.0    0.000    0.000    1.947    1.947
 overlap_condnum                      1  5.0    0.000    0.001    1.891    1.945
 mp_sum_l                          1073  6.4    1.061    1.943    1.061    1.943
 integrate_four_center_load          65 10.0    0.000    0.001    1.028    1.899
 hfx_load_balance                     1 11.0    0.000    0.000    1.028    1.898
 hfx_load_balance_range               1 12.0    0.000    0.003    1.014    1.884
 fm_general_add_bse                   5 10.2    0.000    0.000    1.703    1.751
 arnoldi_conjugate_gradient           5  6.0    0.035    0.043    1.732    1.732
 transfer_rs2pw_90                   65  9.0    0.385    0.460    1.364    1.525
 pw_axpy                            645  9.3    1.381    1.506    1.381    1.506
 create_B                             1  8.0    0.000    0.000    1.464    1.493
 transfer_pw2rs_30                   65 12.0    0.886    0.963    1.360    1.447
 create_A                             1  8.0    0.005    0.005    1.423    1.438
 rpa_num_int_RPA_matrix_operati     100  7.0    0.001    0.003    1.422    1.423
 pw_copy_to_array                   647 11.8    1.251    1.368    1.251    1.368
 Vh_1c_gg_integrals                  65  8.0    0.094    1.078    1.195    1.340
 calc_pair_dist_radii                 1 10.0    0.418    0.423    1.206    1.229
 calc_mat_Q                         100  8.0    0.000    0.000    1.198    1.210
 dbcsr_sym_matrix_vector_mult      5164  7.0    0.081    0.088    1.046    1.205
 contract_S_to_Q                    100  9.0    0.001    0.001    1.179    1.190
 pw_integral_ab_c1d_c1d_gs           65  9.0    0.954    0.962    1.086    1.178
 pw_poisson_rebuild                  65  9.0    0.000    0.000    1.109    1.136
 ps_wavelet_create                    1 10.0    0.000    0.000    1.109    1.136
 RS_z_slice_distribution              1 11.0    0.993    1.037    1.109    1.136
 transfer_rs2pw_30                   65  9.0    0.508    0.536    1.039    1.060
 pw_copy_from_array                 709 12.1    0.862    1.060    0.862    1.060
 mp_isendrecv_dv                  12220 12.0    0.344    0.811    0.344    0.811
 mp_sendrecv_dv                    6110 10.0    0.753    0.790    0.753    0.790
 init_scf_run                         1  3.0    0.000    0.000    0.787    0.788
 dbt_total                            8  8.0    0.000    0.000    0.765    0.765
 mp_irecv_dm3                      2352 11.5    0.435    0.734    0.435    0.734
 scf_env_initial_rho_setup            1  4.0    0.000    0.000    0.719    0.720
 pw_zero                            386 10.3    0.616    0.682    0.616    0.682
 create_integ_mat                     4  6.0    0.002    0.003    0.629    0.648
 array2fm                             4  7.0    0.000    0.000    0.591    0.643
 abc_contract                      5760  9.0    0.305    0.636    0.305    0.636
 integrate_four_center_getP          65 10.0    0.026    0.030    0.614    0.629
 dbt_contract                         4  9.0    0.001    0.001    0.617    0.620
 integrate_four_center_dist_KS       65 10.0    0.025    0.032    0.611    0.618
 dbcsr_rep_row_to_rep_col_vec      5164  8.0    0.030    0.039    0.341    0.614
 cp_fm_redistribute_start            70  8.0    0.246    0.471    0.331    0.603
 mp_isend_dv                       8739 12.0    0.389    0.599    0.389    0.599
 dbcsr_multiply_generic             157  8.1    0.007    0.008    0.508    0.549
 qs_init_subsys                       1  2.0    0.006    0.007    0.548    0.548
 mp_isend_dm3                      2352 11.5    0.265    0.534    0.265    0.534
 transfer_pw2rs_10                   65 12.0    0.224    0.235    0.476    0.511
 qs_env_setup                         1  3.0    0.000    0.000    0.482    0.492
 qs_env_rebuild_pw_env                2  3.5    0.000    0.000    0.481    0.492
 pw_env_rebuild                       1  5.0    0.001    0.001    0.480    0.491
 calculate_rho_atom_coeff            65  6.0    0.086    0.205    0.466    0.466
 dbcsr_add_d                       7796  7.0    0.007    0.009    0.079    0.448
 dbcsr_add_anytype                 7796  8.0    0.011    0.056    0.072    0.440
 update_ks_atom                      65  8.0    0.064    0.150    0.319    0.438
 pw_grid_setup                        4  6.0    0.000    0.000    0.423    0.434
 pw_grid_setup_internal               4  7.0    0.010    0.013    0.423    0.434
 cp_fm_cholesky_invert              101  8.0    0.406    0.431    0.406    0.431
 fm_general_add_bse_1_setup           5 11.2    0.392    0.429    0.392    0.429
 dbt_tas_multiply                     8 11.5    0.000    0.000    0.424    0.424
 dbt_tas_total                        8 12.5    0.001    0.001    0.424    0.424
 fft_wrap_pw1pw2_30                 130 10.5    0.016    0.017    0.408    0.423
 create_qs_kind_set                   1  2.0    0.000    0.000    0.413    0.413
 read_qs_kind                         1  3.0    0.225    0.233    0.412    0.413
 fm_general_add_bse_4_buf_from_       1 10.0    0.387    0.408    0.387    0.408
 cp_fm_uplo_to_full                 103  8.0    0.282    0.400    0.282    0.400
 fm_general_add_bse_4_buf_from_       1 10.0    0.360    0.398    0.360    0.398
 copy_dbcsr_to_fm                   119  6.9    0.002    0.002    0.363    0.397
 mp_sum_i                            19  9.5    0.220    0.383    0.220    0.383
 restraint_control                    1  2.0    0.000    0.000    0.220    0.383
 mp2_main_alloc_hfx                   1  4.0    0.163    0.382    0.163    0.382
 mp_max_i                           544  2.9    0.236    0.364    0.236    0.364
 dbcsr_sym_matrix_vector_mult_l    5164  8.0    0.064    0.333    0.080    0.347
 scale_and_distribute               130 10.0    0.325    0.346    0.325    0.346
 dbt_tas_dbm                          8 13.5    0.000    0.000    0.340    0.340
 transfer_rs2pw_10                   65  9.0    0.105    0.112    0.328    0.338
 calculate_dm_sparse                 64  6.0    0.001    0.001    0.302    0.334
 dbcsr_col_vec_to_rep_row          5164  8.0    0.038    0.048    0.228    0.332
 cp_dbcsr_plus_fm_fm_t               64  7.0    0.001    0.001    0.301    0.331
 dbt_copy                            12 10.0    0.000    0.000    0.311    0.327
 dbt_tas_mm_1N                        8 14.5    0.000    0.000    0.309    0.327
 dbm_multiply                         8 15.5    0.309    0.327    0.309    0.327
 pw_grid_sort                         4  8.0    0.223    0.227    0.318    0.323
 mp_bcast_dm                        520  9.0    0.256    0.319    0.256    0.319
 array2fm_info                        4  8.0    0.288    0.301    0.292    0.305
 multiply_cannon                    157  9.1    0.013    0.014    0.275    0.303
 mp_bcast_dv                       5234  9.0    0.177    0.302    0.177    0.302
 dbcsr_finalize                    9136 10.2    0.013    0.094    0.067    0.293
 multiply_cannon_loop               157 10.1    0.006    0.007    0.247    0.276
 cp_fm_cholesky_decompose           102  9.0    0.247    0.273    0.247    0.273
 fm_general_add_bse_5_comm_buff       5 11.2    0.000    0.000    0.166    0.249
 communicate_buffer                   5 12.2    0.000    0.000    0.166    0.249
 dbcsr_complete_redistribute        251  8.5    0.052    0.061    0.235    0.248
 dbcsr_desymmetrize_deep            121  7.8    0.011    0.019    0.215    0.240
 cp_fm_to_fm_submat_general         112 10.1    0.140    0.238    0.140    0.238
 cp_fm_create                       345  7.8    0.179    0.233    0.179    0.233
 multiply_cannon_multrec            916 11.1    0.159    0.211    0.161    0.212
 compute_Erpa_by_freq_int           100  8.0    0.001    0.001    0.207    0.207
 pw_scale                           257  9.5    0.161    0.201    0.161    0.201
 make_m2s                           314  9.1    0.004    0.005    0.189    0.199
 parser_read_line                 47726  4.0    0.016    0.017    0.187    0.190
 fm_general_add_bse_3_alloc_buf       5 11.2    0.131    0.187    0.131    0.187
 dbt_reshape                          8 11.5    0.061    0.063    0.179    0.186
 hybrid_alltoall_any                435 11.2    0.070    0.076    0.171    0.181
 -------------------------------------------------------------------------------

 The number of warnings for this run is : 2
 
 -------------------------------------------------------------------------------
  **** **** ******  **  PROGRAM ENDED AT                 2025-03-19 00:58:49.440
 ***** ** ***  *** **   PROGRAM RAN ON                              i02r08c05s12
 **    ****   ******    PROGRAM RAN BY                                   di38fab
 ***** **    ** ** **   PROGRAM PROCESS ID                               1948219
  **** **  *******  **  PROGRAM STOPPED IN /hppfs/scratch/04/di38fab/05_MOL/W4-1
                                           1+ALK/p4/aug-cc-pV5Z/GW+BSE
