 DBCSR| CPU Multiplication driver                                           BLAS (U)
 DBCSR| Multrec recursion limit                                              512 (U)
 DBCSR| Multiplication stack size                                           1000 (D)
 DBCSR| Maximum elements for images                                    UNLIMITED (U)
 DBCSR| Multiplicative factor virtual images                                   1 (U)
 DBCSR| Use multiplication densification                                       T (D)
 DBCSR| Multiplication size stacks                                             3 (U)
 DBCSR| Use memory pool for CPU allocation                                     F (U)
 DBCSR| Number of 3D layers                                               SINGLE (U)
 DBCSR| Use MPI memory allocation                                              F (U)
 DBCSR| Use RMA algorithm                                                      F (U)
 DBCSR| Use Communication thread                                               T (U)
 DBCSR| Communication thread load                                             75 (D)
 DBCSR| MPI: My process id                                                     0
 DBCSR| MPI: Number of processes                                              96
 DBCSR| OMP: Current number of threads                                         4
 DBCSR| OMP: Max number of threads                                             4
 DBCSR| Split modifier for TAS multiplication algorithm                  1.0E+00 (U)


  **** **** ******  **  PROGRAM STARTED AT               2025-04-24 18:06:51.643
 ***** ** ***  *** **   PROGRAM STARTED ON                          i05r04c01s11
 **    ****   ******    PROGRAM STARTED BY                               di38fab
 ***** **    ** ** **   PROGRAM PROCESS ID                               2985618
  **** **  *******  **  PROGRAM STARTED IN /hppfs/scratch/04/di38fab/07_MOL_non_
                                           aug/05_MOL_non_aug/05_MOL/W4-11+ALK/h
                                           ocn/cc-pVDZ/TDDFT

 CP2K| version string:                 CP2K version 2025.1 (Development Version)
 CP2K| source code revision number:                             unknown revision
 CP2K| cp2kflags: omp libint fftw3 libxc parallel scalapack max_contr=4         
 CP2K| is freely available from                            https://www.cp2k.org/
 CP2K| Program compiled at                         Thu Apr 10 16:20:23 CEST 2025
 CP2K| Program compiled on                                               login01
 CP2K| Program compiled for                                        Supermuc-foss
 CP2K| Data directory path                  /hppfs/work/pn36zo/di38fab/cp2k/data
 CP2K| Input file name                                                    GW.inp

 GLOBAL| Force Environment number                                              1
 GLOBAL| Basis set file name            /hppfs/scratch/04/di38fab/04_TMD/BASIS_A
 GLOBAL| Potential file name            /hppfs/work/pn36zo/di38fab/cp2k/data/ALL
 GLOBAL| MM Potential file name                                     MM_POTENTIAL
 GLOBAL| Coordinate file name                                      __STD_INPUT__
 GLOBAL| Method name                                                        CP2K
 GLOBAL| Project name                                                       MoS2
 GLOBAL| Run type                                                         ENERGY
 GLOBAL| FFT library                                                       FFTW3
 GLOBAL| Diagonalization library                                       ScaLAPACK
 GLOBAL| DGEMM library                                                      BLAS
 GLOBAL| Orthonormality check for eigenvectors                          DISABLED
 GLOBAL| Matrix multiplication library                                 ScaLAPACK
 GLOBAL| All-to-all communication in single precision                          F
 GLOBAL| FFTs using library dependent lengths                                  F
 GLOBAL| Grid backend                                                       AUTO
 GLOBAL| Global print level                                               MEDIUM
 GLOBAL| MPI I/O enabled                                                       T
 GLOBAL| Total number of message passing processes                            96
 GLOBAL| Number of threads for this process                                    4
 GLOBAL| This output is from process                                           0
 GLOBAL| OpenMP stack size per thread (OMP_STACKSIZE)                    default
 GLOBAL| CPU model name             Intel(R) Xeon(R) Platinum 8174 CPU @ 3.10GHz

 MEMORY| system memory details [Kb]
 MEMORY|                        rank 0           min           max       average
 MEMORY| MemTotal             98436660      98436660      98436708      98436667
 MEMORY| MemFree              83858852      83725436      84152648      83943624
 MEMORY| Buffers                     0             0             0             0
 MEMORY| Cached                2396516       2386252       2427396       2402440
 MEMORY| Slab                  1249232       1200604       1258252       1233653
 MEMORY| SReclaimable           268536        265016        282396        272211
 MEMORY| MemLikelyFree        86523904      86393180      86818624      86618275


 *** Fundamental physical constants (SI units) ***

 *** Literature: B. J. Mohr and B. N. Taylor,
 ***             CODATA recommended values of the fundamental physical
 ***             constants: 2006, Web Version 5.1
 ***             http://physics.nist.gov/constants

 Speed of light in vacuum [m/s]                             2.99792458000000E+08
 Magnetic constant or permeability of vacuum [N/A**2]       1.25663706143592E-06
 Electric constant or permittivity of vacuum [F/m]          8.85418781762039E-12
 Planck constant (h) [J*s]                                  6.62606896000000E-34
 Planck constant (h-bar) [J*s]                              1.05457162825177E-34
 Elementary charge [C]                                      1.60217648700000E-19
 Electron mass [kg]                                         9.10938215000000E-31
 Electron g factor [ ]                                     -2.00231930436220E+00
 Proton mass [kg]                                           1.67262163700000E-27
 Fine-structure constant                                    7.29735253760000E-03
 Rydberg constant [1/m]                                     1.09737315685270E+07
 Avogadro constant [1/mol]                                  6.02214179000000E+23
 Boltzmann constant [J/K]                                   1.38065040000000E-23
 Atomic mass unit [kg]                                      1.66053878200000E-27
 Bohr radius [m]                                            5.29177208590000E-11

 *** Conversion factors ***

 [u] -> [a.u.]                                              1.82288848426455E+03
 [Angstrom] -> [Bohr] = [a.u.]                              1.88972613288564E+00
 [a.u.] = [Bohr] -> [Angstrom]                              5.29177208590000E-01
 [a.u.] -> [s]                                              2.41888432650478E-17
 [a.u.] -> [fs]                                             2.41888432650478E-02
 [a.u.] -> [J]                                              4.35974393937059E-18
 [a.u.] -> [N]                                              8.23872205491840E-08
 [a.u.] -> [K]                                              3.15774647902944E+05
 [a.u.] -> [kJ/mol]                                         2.62549961709828E+03
 [a.u.] -> [kcal/mol]                                       6.27509468713739E+02
 [a.u.] -> [Pa]                                             2.94210107994716E+13
 [a.u.] -> [bar]                                            2.94210107994716E+08
 [a.u.] -> [atm]                                            2.90362800883016E+08
 [a.u.] -> [eV]                                             2.72113838565563E+01
 [a.u.] -> [Hz]                                             6.57968392072181E+15
 [a.u.] -> [1/cm] (wave numbers)                            2.19474631370540E+05
 [a.u./Bohr**2] -> [1/cm]                                   5.14048714338585E+03
 

 CELL_TOP| Volume [angstrom^3]:                                     27000.000000
 CELL_TOP| Vector a [angstrom    30.000     0.000     0.000   |a| =    30.000000
 CELL_TOP| Vector b [angstrom     0.000    30.000     0.000   |b| =    30.000000
 CELL_TOP| Vector c [angstrom     0.000     0.000    30.000   |c| =    30.000000
 CELL_TOP| Angle (b,c), alpha [degree]:                                90.000000
 CELL_TOP| Angle (a,c), beta  [degree]:                                90.000000
 CELL_TOP| Angle (a,b), gamma [degree]:                                90.000000
 CELL_TOP| Numerically orthorhombic:                                         YES
 CELL_TOP| Periodicity                                                      NONE

 GENERATE|  Preliminary Number of Bonds generated:                             0
 GENERATE|  Achieved consistency in connectivity generation.

 CELL| Volume [angstrom^3]:                                         27000.000000
 CELL| Vector a [angstrom]:      30.000     0.000     0.000   |a| =    30.000000
 CELL| Vector b [angstrom]:       0.000    30.000     0.000   |b| =    30.000000
 CELL| Vector c [angstrom]:       0.000     0.000    30.000   |c| =    30.000000
 CELL| Angle (b,c), alpha [degree]:                                    90.000000
 CELL| Angle (a,c), beta  [degree]:                                    90.000000
 CELL| Angle (a,b), gamma [degree]:                                    90.000000
 CELL| Numerically orthorhombic:                                             YES
 CELL| Periodicity                                                          NONE

 CELL_REF| Volume [angstrom^3]:                                     27000.000000
 CELL_REF| Vector a [angstrom    30.000     0.000     0.000   |a| =    30.000000
 CELL_REF| Vector b [angstrom     0.000    30.000     0.000   |b| =    30.000000
 CELL_REF| Vector c [angstrom     0.000     0.000    30.000   |c| =    30.000000
 CELL_REF| Angle (b,c), alpha [degree]:                                90.000000
 CELL_REF| Angle (a,c), beta  [degree]:                                90.000000
 CELL_REF| Angle (a,b), gamma [degree]:                                90.000000
 CELL_REF| Numerically orthorhombic:                                         YES
 CELL_REF| Periodicity                                                      NONE

 *******************************************************************************
 *******************************************************************************
 **                                                                           **
 **     #####                         ##              ##                      **
 **    ##   ##            ##          ##              ##                      **
 **   ##     ##                       ##            ######                    **
 **   ##     ##  ##   ##  ##   #####  ##  ##   ####   ##    #####    #####    **
 **   ##     ##  ##   ##  ##  ##      ## ##   ##      ##   ##   ##  ##   ##   **
 **   ##  ## ##  ##   ##  ##  ##      ####     ###    ##   ######   ######    **
 **    ##  ###   ##   ##  ##  ##      ## ##      ##   ##   ##       ##        **
 **     #######   #####   ##   #####  ##  ##  ####    ##    #####   ##        **
 **           ##                                                    ##        **
 **                                                                           **
 **                                                ... make the atoms dance   **
 **                                                                           **
 **            Copyright (C) by CP2K developers group (2000-2025)             **
 **                      J. Chem. Phys. 152, 194103 (2020)                    **
 **                                                                           **
 *******************************************************************************

 DFT| Spin restricted Kohn-Sham (RKS) calculation                            RKS
 DFT| Multiplicity                                                             1
 DFT| Number of spin states                                                    1
 DFT| Charge                                                                   0
 DFT| Self-interaction correction (SIC)                                       NO
 DFT| Cutoffs: density                                              1.000000E-10
 DFT|          gradient                                             1.000000E-10
 DFT|          tau                                                  1.000000E-10
 DFT|          cutoff_smoothing_range                               0.000000E+00
 DFT| XC density smoothing                                                  NONE
 DFT| XC derivatives                                                          PW

 FUNCTIONAL| PBE:
 FUNCTIONAL| J.P.Perdew, K.Burke, M.Ernzerhof, Phys. Rev. Letter, vol. 77, n 18,
 FUNCTIONAL|  pp. 3865-3868, (1996)sx=0.750sc=1.000{spin unpolarized}           


 QS| Method:                                                                GAPW
 QS| Density plane wave grid type                        NON-SPHERICAL FULLSPACE
 QS| Number of grid levels:                                                    4
 QS| Density cutoff [a.u.]:                                                250.0
 QS| Multi grid cutoff [a.u.]: 1) grid level                               250.0
 QS|                           2) grid level                                83.3
 QS|                           3) grid level                                27.8
 QS|                           4) grid level                                 9.3
 QS| Grid level progression factor:                                          3.0
 QS| Relative density cutoff [a.u.]:                                        50.0
 QS| Interaction thresholds: eps_pgf_orb:                                1.0E-12
 QS|                         eps_filter_matrix:                          0.0E+00
 QS|                         eps_core_charge:                            1.0E-14
 QS|                         eps_rho_gspace:                             1.0E-12
 QS|                         eps_rho_rspace:                             1.0E-12
 QS|                         eps_gvg_rspace:                             1.0E-06
 QS|                         eps_ppl:                                    1.0E-02
 QS|                         eps_ppnl:                                   1.0E-08
 QS| GAPW|      One center basis from orbital basis primitives
 QS| GAPW|                   eps_fit:                                    1.0E-04
 QS| GAPW|                   eps_iso:                                    1.0E-12
 QS| GAPW|                   eps_svd:                                    1.0E-08
 QS| GAPW|                   eps_cpc:                                    1.0E-12
 QS| GAPW|   atom-r-grid: quadrature:                                     GC_LOG
 QS| GAPW|      atom-s-grid:  max l :                                          4
 QS| GAPW|      max_l_rho0 :                                                   2


 ATOMIC KIND INFORMATION

  1. Atomic kind: C                                     Number of atoms:       1

     Orbital Basis Set                                                   cc-pVDZ

       Number of orbital shell sets:                                           3
       Number of orbital shells:                                               6
       Number of primitive Cartesian functions:                               14
       Number of Cartesian basis functions:                                   15
       Number of spherical basis functions:                                   14
       Norm type:                                                              2

       Normalised Cartesian orbitals:

                        Set   Shell   Orbital            Exponent    Coefficient

                          1       1    1px               9.439000       0.898722
                                                         2.002000       0.711071
                                                         0.545600       0.339917
                                                         0.151700       0.063270
                          1       1    1py               9.439000       0.898722
                                                         2.002000       0.711071
                                                         0.545600       0.339917
                                                         0.151700       0.063270
                          1       1    1pz               9.439000       0.898722
                                                         2.002000       0.711071
                                                         0.545600       0.339917
                                                         0.151700       0.063270

                          1       2    2px               9.439000       0.000000
                                                         2.002000       0.000000
                                                         0.545600       0.000000
                                                         0.151700       0.134950
                          1       2    2py               9.439000       0.000000
                                                         2.002000       0.000000
                                                         0.545600       0.000000
                                                         0.151700       0.134950
                          1       2    2pz               9.439000       0.000000
                                                         2.002000       0.000000
                                                         0.545600       0.000000
                                                         0.151700       0.134950

                          2       1    1s             6665.000000       0.363803
                                                      1000.000000       0.675392
                                                       228.000000       1.132301
                                                        64.710000       1.654004
                                                        21.060000       1.924978
                                                         7.495000       1.448149
                                                         2.797000       0.439427
                                                         0.521500       0.006650
                                                         0.159600      -0.000574

                          2       2    2s             6665.000000      -0.076756
                                                      1000.000000      -0.146257
                                                       228.000000      -0.239407
                                                        64.710000      -0.379069
                                                        21.060000      -0.448104
                                                         7.495000      -0.484201
                                                         2.797000      -0.196168
                                                         0.521500       0.238162
                                                         0.159600       0.104468

                          2       3    3s             6665.000000       0.000000
                                                      1000.000000       0.000000
                                                       228.000000       0.000000
                                                        64.710000       0.000000
                                                        21.060000       0.000000
                                                         7.495000       0.000000
                                                         2.797000       0.000000
                                                         0.521500       0.000000
                                                         0.159600       0.179964

                          3       1    1dx2              0.550000       0.578155
                          3       1    1dxy              0.550000       1.001394
                          3       1    1dxz              0.550000       1.001394
                          3       1    1dy2              0.550000       0.578155
                          3       1    1dyz              0.550000       1.001394
                          3       1    1dz2              0.550000       0.578155

     RI Auxiliary Basis Set                                        cc-pVDZ-RIFIT

       Number of orbital shell sets:                                          18
       Number of orbital shells:                                              18
       Number of primitive Cartesian functions:                               18
       Number of Cartesian basis functions:                                   66
       Number of spherical basis functions:                                   56
       Norm type:                                                              2

       Normalised Cartesian orbitals:

                        Set   Shell   Orbital            Exponent    Coefficient

                          1       1    1s                0.206796       0.218558

                          2       1    1px               0.321667       0.345301
                          2       1    1py               0.321667       0.345301
                          2       1    1pz               0.321667       0.345301

                          3       1    1dx2              0.340842       0.250252
                          3       1    1dxy              0.340842       0.433449
                          3       1    1dxz              0.340842       0.433449
                          3       1    1dy2              0.340842       0.250252
                          3       1    1dyz              0.340842       0.433449
                          3       1    1dz2              0.340842       0.250252

                          4       1    1s                0.409072       0.364552

                          5       1    1px               0.754465       1.002280
                          5       1    1py               0.754465       1.002280
                          5       1    1pz               0.754465       1.002280

                          6       1    1s                0.782697       0.593069

                          7       1    1fx3              0.895756       1.149162
                          7       1    1fx2y             0.895756       2.569605
                          7       1    1fx2z             0.895756       2.569605
                          7       1    1fxy2             0.895756       2.569605
                          7       1    1fxyz             0.895756       4.450686
                          7       1    1fxz2             0.895756       2.569605
                          7       1    1fy3              0.895756       1.149162
                          7       1    1fy2z             0.895756       2.569605
                          7       1    1fyz2             0.895756       2.569605
                          7       1    1fz3              0.895756       1.149162

                          8       1    1dx2              0.922515       1.429266
                          8       1    1dxy              0.922515       2.475561
                          8       1    1dxz              0.922515       2.475561
                          8       1    1dy2              0.922515       1.429266
                          8       1    1dyz              0.922515       2.475561
                          8       1    1dz2              0.922515       1.429266

                          9       1    1s                1.513330       0.972434

                         10       1    1px               1.720600       2.808924
                         10       1    1py               1.720600       2.808924
                         10       1    1pz               1.720600       2.808924

                         11       1    1dx2              2.678440       9.230024
                         11       1    1dxy              2.678440      15.986870
                         11       1    1dxz              2.678440      15.986870
                         11       1    1dy2              2.678440       9.230024
                         11       1    1dyz              2.678440      15.986870
                         11       1    1dz2              2.678440       9.230024

                         12       1    1fx3              2.742930      14.254027
                         12       1    1fx2y             2.742930      31.872974
                         12       1    1fx2z             2.742930      31.872974
                         12       1    1fxy2             2.742930      31.872974
                         12       1    1fxyz             2.742930      55.205610
                         12       1    1fxz2             2.742930      31.872974
                         12       1    1fy3              2.742930      14.254027
                         12       1    1fy2z             2.742930      31.872974
                         12       1    1fyz2             2.742930      31.872974
                         12       1    1fz3              2.742930      14.254027

                         13       1    1s                4.772770       2.301378

                         14       1    1px               6.005230      13.399918
                         14       1    1py               6.005230      13.399918
                         14       1    1pz               6.005230      13.399918

                         15       1    1dx2             10.171500      95.352748
                         15       1    1dxy             10.171500     165.155804
                         15       1    1dxz             10.171500     165.155804
                         15       1    1dy2             10.171500      95.352748
                         15       1    1dyz             10.171500     165.155804
                         15       1    1dz2             10.171500      95.352748

                         16       1    1s               13.804500       5.104176

                         17       1    1px              20.885100      63.640823
                         17       1    1py              20.885100      63.640823
                         17       1    1pz              20.885100      63.640823

                         18       1    1s               62.745300      15.888979

       Atomic covalent radius [Angstrom]:                                  0.770

       Atomic van der Waals radius [Angstrom]:                             1.700

     The atoms of this atomic kind are PAW atoms (GAPW):
       Hard Gaussian function radius:                                      1.512
       Rho0 radius:                                                        1.512
       Maximum GTO radius used for PAW projector construction:            24.566

     GAPW Soft Basis Set                                            cc-pVDZ_soft

       Number of orbital shell sets:                                           3
       Number of orbital shells:                                               6
       Number of primitive Cartesian functions:                                7
       Number of Cartesian basis functions:                                   15
       Number of spherical basis functions:                                   14
       Norm type:                                                              2

       Normalised Cartesian orbitals:

                        Set   Shell   Orbital            Exponent    Coefficient

                          1       1    1px               2.002000       0.711071
                                                         0.545600       0.339917
                                                         0.151700       0.063270
                          1       1    1py               2.002000       0.711071
                                                         0.545600       0.339917
                                                         0.151700       0.063270
                          1       1    1pz               2.002000       0.711071
                                                         0.545600       0.339917
                                                         0.151700       0.063270

                          1       2    2px               2.002000       0.000000
                                                         0.545600       0.000000
                                                         0.151700       0.134950
                          1       2    2py               2.002000       0.000000
                                                         0.545600       0.000000
                                                         0.151700       0.134950
                          1       2    2pz               2.002000       0.000000
                                                         0.545600       0.000000
                                                         0.151700       0.134950

                          2       1    1s                2.797000       0.439427
                                                         0.521500       0.006650
                                                         0.159600      -0.000574

                          2       2    2s                2.797000      -0.196168
                                                         0.521500       0.238162
                                                         0.159600       0.104468

                          2       3    3s                2.797000       0.000000
                                                         0.521500       0.000000
                                                         0.159600       0.179964

                          3       1    1dx2              0.550000       0.578155
                          3       1    1dxy              0.550000       1.001394
                          3       1    1dxz              0.550000       1.001394
                          3       1    1dy2              0.550000       0.578155
                          3       1    1dyz              0.550000       1.001394
                          3       1    1dz2              0.550000       0.578155

     AE Potential information for                                            ALL

       Description:                                       All-electron potential
                                          Krack, Parrinello, PCCP 2, 2105 (2000)

       Gaussian exponent of the core charge distribution:               4.109048
       Electronic configuration (s p d ...):                           4   2   0

  2. Atomic kind: N                                     Number of atoms:       1

     Orbital Basis Set                                                   cc-pVDZ

       Number of orbital shell sets:                                           3
       Number of orbital shells:                                               6
       Number of primitive Cartesian functions:                               14
       Number of Cartesian basis functions:                                   15
       Number of spherical basis functions:                                   14
       Norm type:                                                              2

       Normalised Cartesian orbitals:

                        Set   Shell   Orbital            Exponent    Coefficient

                          1       1    1px              13.550000       1.479258
                                                         2.917000       1.180072
                                                         0.797300       0.548036
                                                         0.218500       0.098423
                          1       1    1py              13.550000       1.479258
                                                         2.917000       1.180072
                                                         0.797300       0.548036
                                                         0.218500       0.098423
                          1       1    1pz              13.550000       1.479258
                                                         2.917000       1.180072
                                                         0.797300       0.548036
                                                         0.218500       0.098423

                          1       2    2px              13.550000       0.000000
                                                         2.917000       0.000000
                                                         0.797300       0.000000
                                                         0.218500       0.212939
                          1       2    2py              13.550000       0.000000
                                                         2.917000       0.000000
                                                         0.797300       0.000000
                                                         0.218500       0.212939
                          1       2    2pz              13.550000       0.000000
                                                         2.917000       0.000000
                                                         0.797300       0.000000
                                                         0.218500       0.212939

                          2       1    1s             9046.000000       0.462754
                                                      1357.000000       0.858723
                                                       309.300000       1.440591
                                                        87.730000       2.108533
                                                        28.560000       2.454153
                                                        10.210000       1.825915
                                                         3.838000       0.543758
                                                         0.746600       0.008838
                                                         0.224800      -0.000666

                          2       2    2s             9046.000000      -0.101145
                                                      1357.000000      -0.192492
                                                       309.300000      -0.314968
                                                        87.730000      -0.501437
                                                        28.560000      -0.593976
                                                        10.210000      -0.643503
                                                         3.838000      -0.238093
                                                         0.746600       0.314268
                                                         0.224800       0.134678

                          2       3    3s             9046.000000       0.000000
                                                      1357.000000       0.000000
                                                       309.300000       0.000000
                                                        87.730000       0.000000
                                                        28.560000       0.000000
                                                        10.210000       0.000000
                                                         3.838000       0.000000
                                                         0.746600       0.000000
                                                         0.224800       0.232679

                          3       1    1dx2              0.817000       1.155575
                          3       1    1dxy              0.817000       2.001514
                          3       1    1dxz              0.817000       2.001514
                          3       1    1dy2              0.817000       1.155575
                          3       1    1dyz              0.817000       2.001514
                          3       1    1dz2              0.817000       1.155575

     RI Auxiliary Basis Set                                        cc-pVDZ-RIFIT

       Number of orbital shell sets:                                          18
       Number of orbital shells:                                              18
       Number of primitive Cartesian functions:                               18
       Number of Cartesian basis functions:                                   66
       Number of spherical basis functions:                                   56
       Norm type:                                                              2

       Normalised Cartesian orbitals:

                        Set   Shell   Orbital            Exponent    Coefficient

                          1       1    1s                0.327261       0.308376

                          2       1    1px               0.461104       0.541613
                          2       1    1py               0.461104       0.541613
                          2       1    1pz               0.461104       0.541613

                          3       1    1dx2              0.477850       0.452033
                          3       1    1dxy              0.477850       0.782943
                          3       1    1dxz              0.477850       0.782943
                          3       1    1dy2              0.477850       0.452033
                          3       1    1dyz              0.477850       0.782943
                          3       1    1dz2              0.477850       0.452033

                          4       1    1s                0.723539       0.559122

                          5       1    1px               1.094610       1.595932
                          5       1    1py               1.094610       1.595932
                          5       1    1pz               1.094610       1.595932

                          6       1    1s                1.123240       0.777615

                          7       1    1dx2              1.285370       2.553929
                          7       1    1dxy              1.285370       4.423534
                          7       1    1dxz              1.285370       4.423534
                          7       1    1dy2              1.285370       2.553929
                          7       1    1dyz              1.285370       4.423534
                          7       1    1dz2              1.285370       2.553929

                          8       1    1fx3              1.334730       2.818965
                          8       1    1fx2y             1.334730       6.303397
                          8       1    1fx2z             1.334730       6.303397
                          8       1    1fxy2             1.334730       6.303397
                          8       1    1fxyz             1.334730      10.917804
                          8       1    1fxz2             1.334730       6.303397
                          8       1    1fy3              1.334730       2.818965
                          8       1    1fy2z             1.334730       6.303397
                          8       1    1fyz2             1.334730       6.303397
                          8       1    1fz3              1.334730       2.818965

                          9       1    1s                2.344260       1.350251

                         10       1    1px               2.533640       4.556393
                         10       1    1py               2.533640       4.556393
                         10       1    1pz               2.533640       4.556393

                         11       1    1fx3              3.401180      23.127095
                         11       1    1fx2y             3.401180      51.713757
                         11       1    1fx2z             3.401180      51.713757
                         11       1    1fxy2             3.401180      51.713757
                         11       1    1fxyz             3.401180      89.570854
                         11       1    1fxz2             3.401180      51.713757
                         11       1    1fy3              3.401180      23.127095
                         11       1    1fy2z             3.401180      51.713757
                         11       1    1fyz2             3.401180      51.713757
                         11       1    1fz3              3.401180      23.127095

                         12       1    1dx2              3.428160      14.215638
                         12       1    1dxy              3.428160      24.622207
                         12       1    1dxz              3.428160      24.622207
                         12       1    1dy2              3.428160      14.215638
                         12       1    1dyz              3.428160      24.622207
                         12       1    1dz2              3.428160      14.215638

                         13       1    1s                7.624360       3.270112

                         14       1    1px               8.552990      20.849111
                         14       1    1py               8.552990      20.849111
                         14       1    1pz               8.552990      20.849111

                         15       1    1dx2             12.327800     133.493224
                         15       1    1dxy             12.327800     231.217046
                         15       1    1dxz             12.327800     231.217046
                         15       1    1dy2             12.327800     133.493224
                         15       1    1dyz             12.327800     231.217046
                         15       1    1dz2             12.327800     133.493224

                         16       1    1s               20.467900       6.858278

                         17       1    1px              29.237300      96.908455
                         17       1    1py              29.237300      96.908455
                         17       1    1pz              29.237300      96.908455

                         18       1    1s               87.686400      20.422517

       Atomic covalent radius [Angstrom]:                                  0.750

       Atomic van der Waals radius [Angstrom]:                             1.550

     The atoms of this atomic kind are PAW atoms (GAPW):
       Hard Gaussian function radius:                                      1.512
       Rho0 radius:                                                        1.512
       Maximum GTO radius used for PAW projector construction:            24.566

     GAPW Soft Basis Set                                            cc-pVDZ_soft

       Number of orbital shell sets:                                           3
       Number of orbital shells:                                               6
       Number of primitive Cartesian functions:                                7
       Number of Cartesian basis functions:                                   15
       Number of spherical basis functions:                                   14
       Norm type:                                                              2

       Normalised Cartesian orbitals:

                        Set   Shell   Orbital            Exponent    Coefficient

                          1       1    1px               2.917000       1.180072
                                                         0.797300       0.548036
                                                         0.218500       0.098423
                          1       1    1py               2.917000       1.180072
                                                         0.797300       0.548036
                                                         0.218500       0.098423
                          1       1    1pz               2.917000       1.180072
                                                         0.797300       0.548036
                                                         0.218500       0.098423

                          1       2    2px               2.917000       0.000000
                                                         0.797300       0.000000
                                                         0.218500       0.212939
                          1       2    2py               2.917000       0.000000
                                                         0.797300       0.000000
                                                         0.218500       0.212939
                          1       2    2pz               2.917000       0.000000
                                                         0.797300       0.000000
                                                         0.218500       0.212939

                          2       1    1s                3.838000       0.543758
                                                         0.746600       0.008838
                                                         0.224800      -0.000666

                          2       2    2s                3.838000      -0.238093
                                                         0.746600       0.314268
                                                         0.224800       0.134678

                          2       3    3s                3.838000       0.000000
                                                         0.746600       0.000000
                                                         0.224800       0.232679

                          3       1    1dx2              0.817000       1.155575
                          3       1    1dxy              0.817000       2.001514
                          3       1    1dxz              0.817000       2.001514
                          3       1    1dy2              0.817000       1.155575
                          3       1    1dyz              0.817000       2.001514
                          3       1    1dz2              0.817000       1.155575

     AE Potential information for                                            ALL

       Description:                                       All-electron potential
                                          Krack, Parrinello, PCCP 2, 2105 (2000)

       Gaussian exponent of the core charge distribution:               5.979100
       Electronic configuration (s p d ...):                           4   3   0

  3. Atomic kind: O                                     Number of atoms:       1

     Orbital Basis Set                                                   cc-pVDZ

       Number of orbital shell sets:                                           3
       Number of orbital shells:                                               6
       Number of primitive Cartesian functions:                               14
       Number of Cartesian basis functions:                                   15
       Number of spherical basis functions:                                   14
       Norm type:                                                              2

       Normalised Cartesian orbitals:

                        Set   Shell   Orbital            Exponent    Coefficient

                          1       1    1px              17.700000       2.226162
                                                         3.854000       1.761976
                                                         1.046000       0.767079
                                                         0.275300       0.130905
                          1       1    1py              17.700000       2.226162
                                                         3.854000       1.761976
                                                         1.046000       0.767079
                                                         0.275300       0.130905
                          1       1    1pz              17.700000       2.226162
                                                         3.854000       1.761976
                                                         1.046000       0.767079
                                                         0.275300       0.130905

                          1       2    2px              17.700000       0.000000
                                                         3.854000       0.000000
                                                         1.046000       0.000000
                                                         0.275300       0.284248
                          1       2    2py              17.700000       0.000000
                                                         3.854000       0.000000
                                                         1.046000       0.000000
                                                         0.275300       0.284248
                          1       2    2pz              17.700000       0.000000
                                                         3.854000       0.000000
                                                         1.046000       0.000000
                                                         0.275300       0.284248

                          2       1    1s            11720.000000       0.569986
                                                      1759.000000       1.058881
                                                       400.800000       1.777168
                                                       113.700000       2.600710
                                                        37.030000       3.028357
                                                        13.270000       2.223504
                                                         5.025000       0.648119
                                                         1.013000       0.011124
                                                         0.302300      -0.000751

                          2       2    2s            11720.000000      -0.128448
                                                      1759.000000      -0.244491
                                                       400.800000      -0.400097
                                                       113.700000      -0.638166
                                                        37.030000      -0.758785
                                                        13.270000      -0.819649
                                                         5.025000      -0.279757
                                                         1.013000       0.401106
                                                         0.302300       0.166422

                          2       3    3s            11720.000000       0.000000
                                                      1759.000000       0.000000
                                                       400.800000       0.000000
                                                       113.700000       0.000000
                                                        37.030000       0.000000
                                                        13.270000       0.000000
                                                         5.025000       0.000000
                                                         1.013000       0.000000
                                                         0.302300       0.290562

                          3       1    1dx2              1.185000       2.215218
                          3       1    1dxy              1.185000       3.836871
                          3       1    1dxz              1.185000       3.836871
                          3       1    1dy2              1.185000       2.215218
                          3       1    1dyz              1.185000       3.836871
                          3       1    1dz2              1.185000       2.215218

     RI Auxiliary Basis Set                                        cc-pVDZ-RIFIT

       Number of orbital shell sets:                                          18
       Number of orbital shells:                                              18
       Number of primitive Cartesian functions:                               18
       Number of Cartesian basis functions:                                   66
       Number of spherical basis functions:                                   56
       Norm type:                                                              2

       Normalised Cartesian orbitals:

                        Set   Shell   Orbital            Exponent    Coefficient

                          1       1    1s                0.421376       0.372746

                          2       1    1dx2              0.592201       0.658007
                          2       1    1dxy              0.592201       1.139701
                          2       1    1dxz              0.592201       1.139701
                          2       1    1dy2              0.592201       0.658007
                          2       1    1dyz              0.592201       1.139701
                          2       1    1dz2              0.592201       0.658007

                          3       1    1px               0.612763       0.772780
                          3       1    1py               0.612763       0.772780
                          3       1    1pz               0.612763       0.772780

                          4       1    1s                0.905061       0.661330

                          5       1    1s                1.396380       0.915509

                          6       1    1px               1.403870       2.178205
                          6       1    1py               1.403870       2.178205
                          6       1    1pz               1.403870       2.178205

                          7       1    1fx3              1.790210       5.457433
                          7       1    1fx2y             1.790210      12.203191
                          7       1    1fx2z             1.790210      12.203191
                          7       1    1fxy2             1.790210      12.203191
                          7       1    1fxyz             1.790210      21.136547
                          7       1    1fxz2             1.790210      12.203191
                          7       1    1fy3              1.790210       5.457433
                          7       1    1fy2z             1.790210      12.203191
                          7       1    1fyz2             1.790210      12.203191
                          7       1    1fz3              1.790210       5.457433

                          8       1    1dx2              1.812210       4.658803
                          8       1    1dxy              1.812210       8.069284
                          8       1    1dxz              1.812210       8.069284
                          8       1    1dy2              1.812210       4.658803
                          8       1    1dyz              1.812210       8.069284
                          8       1    1dz2              1.812210       4.658803

                          9       1    1s                2.939600       1.600023

                         10       1    1px               3.205940       6.114829
                         10       1    1py               3.205940       6.114829
                         10       1    1pz               3.205940       6.114829

                         11       1    1fx3              4.221940      37.614611
                         11       1    1fx2y             4.221940      84.108828
                         11       1    1fx2z             4.221940      84.108828
                         11       1    1fxy2             4.221940      84.108828
                         11       1    1fxyz             4.221940     145.680763
                         11       1    1fxz2             4.221940      84.108828
                         11       1    1fy3              4.221940      37.614611
                         11       1    1fy2z             4.221940      84.108828
                         11       1    1fyz2             4.221940      84.108828
                         11       1    1fz3              4.221940      37.614611

                         12       1    1dx2              4.520870      23.070021
                         12       1    1dxy              4.520870      39.958448
                         12       1    1dxz              4.520870      39.958448
                         12       1    1dy2              4.520870      23.070021
                         12       1    1dyz              4.520870      39.958448
                         12       1    1dz2              4.520870      23.070021

                         13       1    1s                9.551480       3.872247

                         14       1    1px              10.881700      28.171568
                         14       1    1py              10.881700      28.171568
                         14       1    1pz              10.881700      28.171568

                         15       1    1dx2             15.251100     193.725371
                         15       1    1dxy             15.251100     335.542185
                         15       1    1dxz             15.251100     335.542185
                         15       1    1dy2             15.251100     193.725371
                         15       1    1dyz             15.251100     335.542185
                         15       1    1dz2             15.251100     193.725371

                         16       1    1s               25.578000       8.106064

                         17       1    1px              36.129200     126.259196
                         17       1    1py              36.129200     126.259196
                         17       1    1pz              36.129200     126.259196

                         18       1    1s              109.461000      24.118742

       Atomic covalent radius [Angstrom]:                                  0.730

       Atomic van der Waals radius [Angstrom]:                             1.520

     The atoms of this atomic kind are PAW atoms (GAPW):
       Hard Gaussian function radius:                                      1.512
       Rho0 radius:                                                        1.512
       Maximum GTO radius used for PAW projector construction:            24.566

     GAPW Soft Basis Set                                            cc-pVDZ_soft

       Number of orbital shell sets:                                           3
       Number of orbital shells:                                               6
       Number of primitive Cartesian functions:                                6
       Number of Cartesian basis functions:                                   15
       Number of spherical basis functions:                                   14
       Norm type:                                                              2

       Normalised Cartesian orbitals:

                        Set   Shell   Orbital            Exponent    Coefficient

                          1       1    1px               3.854000       1.761976
                                                         1.046000       0.767079
                                                         0.275300       0.130905
                          1       1    1py               3.854000       1.761976
                                                         1.046000       0.767079
                                                         0.275300       0.130905
                          1       1    1pz               3.854000       1.761976
                                                         1.046000       0.767079
                                                         0.275300       0.130905

                          1       2    2px               3.854000       0.000000
                                                         1.046000       0.000000
                                                         0.275300       0.284248
                          1       2    2py               3.854000       0.000000
                                                         1.046000       0.000000
                                                         0.275300       0.284248
                          1       2    2pz               3.854000       0.000000
                                                         1.046000       0.000000
                                                         0.275300       0.284248

                          2       1    1s                1.013000       0.011124
                                                         0.302300      -0.000751

                          2       2    2s                1.013000       0.401106
                                                         0.302300       0.166422

                          2       3    3s                1.013000       0.000000
                                                         0.302300       0.290562

                          3       1    1dx2              1.185000       2.215218
                          3       1    1dxy              1.185000       3.836871
                          3       1    1dxz              1.185000       3.836871
                          3       1    1dy2              1.185000       2.215218
                          3       1    1dyz              1.185000       3.836871
                          3       1    1dz2              1.185000       2.215218

     AE Potential information for                                            ALL

       Description:                                       All-electron potential
                                          Krack, Parrinello, PCCP 2, 2105 (2000)

       Gaussian exponent of the core charge distribution:               8.154466
       Electronic configuration (s p d ...):                           4   4   0

  4. Atomic kind: H                                     Number of atoms:       1

     Orbital Basis Set                                                   cc-pVDZ

       Number of orbital shell sets:                                           2
       Number of orbital shells:                                               3
       Number of primitive Cartesian functions:                                5
       Number of Cartesian basis functions:                                    5
       Number of spherical basis functions:                                    5
       Norm type:                                                              2

       Normalised Cartesian orbitals:

                        Set   Shell   Orbital            Exponent    Coefficient

                          1       1    1s               13.010000       0.096107
                                                         1.962000       0.163020
                                                         0.444600       0.185545
                                                         0.122000       0.073744

                          1       2    2s               13.010000       0.000000
                                                         1.962000       0.000000
                                                         0.444600       0.000000
                                                         0.122000       0.147123

                          2       1    1px               0.727000       0.956881
                          2       1    1py               0.727000       0.956881
                          2       1    1pz               0.727000       0.956881

     RI Auxiliary Basis Set                                        cc-pVDZ-RIFIT

       Number of orbital shell sets:                                           6
       Number of orbital shells:                                               6
       Number of primitive Cartesian functions:                                6
       Number of Cartesian basis functions:                                   15
       Number of spherical basis functions:                                   14
       Norm type:                                                              2

       Normalised Cartesian orbitals:

                        Set   Shell   Orbital            Exponent    Coefficient

                          1       1    1s                0.291662       0.282859

                          2       1    1px               0.986401       1.401222
                          2       1    1py               0.986401       1.401222
                          2       1    1pz               0.986401       1.401222

                          3       1    1s                1.142965       0.787834

                          4       1    1dx2              1.172083       2.173136
                          4       1    1dxy              1.172083       3.763982
                          4       1    1dxz              1.172083       3.763982
                          4       1    1dy2              1.172083       2.173136
                          4       1    1dyz              1.172083       3.763982
                          4       1    1dz2              1.172083       2.173136

                          5       1    1px               1.914964       3.211004
                          5       1    1py               1.914964       3.211004
                          5       1    1pz               1.914964       3.211004

                          6       1    1s                5.115890       2.424381

       Atomic covalent radius [Angstrom]:                                  0.320

       Atomic van der Waals radius [Angstrom]:                             1.090

     The atoms of this atomic kind are PAW atoms (GAPW):
       Hard Gaussian function radius:                                      1.200
       Rho0 radius:                                                        1.200
       Maximum GTO radius used for PAW projector construction:            24.566

     GAPW Soft Basis Set                                            cc-pVDZ_soft

       Number of orbital shell sets:                                           2
       Number of orbital shells:                                               3
       Number of primitive Cartesian functions:                                4
       Number of Cartesian basis functions:                                    5
       Number of spherical basis functions:                                    5
       Norm type:                                                              2

       Normalised Cartesian orbitals:

                        Set   Shell   Orbital            Exponent    Coefficient

                          1       1    1s                1.962000       0.163020
                                                         0.444600       0.185545
                                                         0.122000       0.073744

                          1       2    2s                1.962000       0.000000
                                                         0.444600       0.000000
                                                         0.122000       0.147123

                          2       1    1px               0.727000       0.956881
                          2       1    1py               0.727000       0.956881
                          2       1    1pz               0.727000       0.956881

     AE Potential information for                                            ALL

       Description:                                       All-electron potential
                                          Krack, Parrinello, PCCP 2, 2105 (2000)

       Gaussian exponent of the core charge distribution:              12.500000
       Electronic configuration (s p d ...):                           1   0   0


 MOLECULE KIND INFORMATION


 All atoms are their own molecule, skipping detailed information


 TOTAL NUMBERS AND MAXIMUM NUMBERS

  Total number of            - Atomic kinds:                                   4
                             - Atoms:                                          4
                             - Shell sets:                                    11
                             - Shells:                                        21
                             - Primitive Cartesian functions:                 47
                             - Cartesian basis functions:                     50
                             - Spherical basis functions:                     47

  Maximum angular momentum of the orbital basis functions:                     2


 MODULE QUICKSTEP: ATOMIC COORDINATES IN ANGSTROM

   Atom Kind Element         X             Y             Z       Z(eff)     Mass
      1    1 C     6     15.253923     15.375062     15.000000   6.0000  12.0107
      2    2 N     7     16.415386     15.377355     15.000000   7.0000  14.0067
      3    3 O     8     13.952382     15.445455     15.000000   8.0000  15.9994
      4    4 H     1     13.584614     14.554545     15.000000   1.0000   1.0079



 SCF PARAMETERS         Density guess:                                   RESTART
                        --------------------------------------------------------
                        max_scf:                                             500
                        max_scf_history:                                       0
                        max_diis:                                              4
                        --------------------------------------------------------
                        eps_scf:                                        1.00E-06
                        eps_scf_history:                                0.00E+00
                        eps_diis:                                       1.00E-01
                        eps_eigval:                                     1.00E-05
                        --------------------------------------------------------
                        level_shift [a.u.]:                             0.000000
                        --------------------------------------------------------
                        Outer loop SCF in use 
                        No variables optimised in outer loop
                        eps_scf                                         1.00E-06
                        max_scf                                               20
                        No outer loop optimization
                        step_size                                       5.00E-01

 PW_GRID| Information for grid number                                          1
 PW_GRID| Grid distributed over                                    96 processors
 PW_GRID| Real space group dimensions                                    96    1
 PW_GRID| the grid is blocked:                                                NO
 PW_GRID| Cutoff [a.u.]                                                    250.0
 PW_GRID| spherical cutoff:                                                   NO
 PW_GRID|   Bounds   1           -202     202                Points:         405
 PW_GRID|   Bounds   2           -202     202                Points:         405
 PW_GRID|   Bounds   3           -202     202                Points:         405
 PW_GRID| Volume element (a.u.^3)  0.2743E-02     Volume (a.u.^3)    182205.0337
 PW_GRID| Grid span                                                    FULLSPACE
 PW_GRID|   Distribution                         Average         Max         Min
 PW_GRID|   G-Vectors                           691980.5      692145      691740
 PW_GRID|   G-Rays                                1708.6        1709        1708
 PW_GRID|   Real Space Points                   691980.5      820125      656100

 PW_GRID| Information for grid number                                          2
 PW_GRID| Number of the reference grid                                         1
 PW_GRID| Grid distributed over                                    96 processors
 PW_GRID| Real space group dimensions                                    96    1
 PW_GRID| the grid is blocked:                                                NO
 PW_GRID| Cutoff [a.u.]                                                     83.3
 PW_GRID| spherical cutoff:                                                   NO
 PW_GRID|   Bounds   1           -120     119                Points:         240
 PW_GRID|   Bounds   2           -120     119                Points:         240
 PW_GRID|   Bounds   3           -120     119                Points:         240
 PW_GRID| Volume element (a.u.^3)  0.1318E-01     Volume (a.u.^3)    182205.0337
 PW_GRID| Grid span                                                    FULLSPACE
 PW_GRID|   Distribution                         Average         Max         Min
 PW_GRID|   G-Vectors                           144000.0      144480      143760
 PW_GRID|   G-Rays                                 600.0         602         599
 PW_GRID|   Real Space Points                   144000.0      172800      115200

 PW_GRID| Information for grid number                                          3
 PW_GRID| Number of the reference grid                                         1
 PW_GRID| Grid distributed over                                    96 processors
 PW_GRID| Real space group dimensions                                    96    1
 PW_GRID| the grid is blocked:                                                NO
 PW_GRID| Cutoff [a.u.]                                                     27.8
 PW_GRID| spherical cutoff:                                                   NO
 PW_GRID|   Bounds   1            -67      67                Points:         135
 PW_GRID|   Bounds   2            -67      67                Points:         135
 PW_GRID|   Bounds   3            -67      67                Points:         135
 PW_GRID| Volume element (a.u.^3)  0.7406E-01     Volume (a.u.^3)    182205.0337
 PW_GRID| Grid span                                                    FULLSPACE
 PW_GRID|   Distribution                         Average         Max         Min
 PW_GRID|   G-Vectors                            25628.9       25785       25515
 PW_GRID|   G-Rays                                 189.8         191         189
 PW_GRID|   Real Space Points                    25628.9       36450       18225

 PW_GRID| Information for grid number                                          4
 PW_GRID| Number of the reference grid                                         1
 PW_GRID| Grid distributed over                                    96 processors
 PW_GRID| Real space group dimensions                                     8   12
 PW_GRID| the grid is blocked:                                                NO
 PW_GRID| Cutoff [a.u.]                                                      9.3
 PW_GRID| spherical cutoff:                                                   NO
 PW_GRID|   Bounds   1            -40      39                Points:          80
 PW_GRID|   Bounds   2            -40      39                Points:          80
 PW_GRID|   Bounds   3            -40      39                Points:          80
 PW_GRID| Volume element (a.u.^3)  0.3559         Volume (a.u.^3)    182205.0337
 PW_GRID| Grid span                                                    FULLSPACE
 PW_GRID|   Distribution                         Average         Max         Min
 PW_GRID|   G-Vectors                             5333.3        5520        5200
 PW_GRID|   G-Rays                                  66.7          69          65
 PW_GRID|   Real Space Points                     5333.3        5600        4800

 POISSON| Solver                                                         WAVELET
 POISSON| Wavelet| Scaling function                                           40
 POISSON| Periodicity                                                       NONE

 RS_GRID| Information for grid number                                          1
 RS_GRID|   Bounds   1           -202     202                Points:         405
 RS_GRID|   Bounds   2           -202     202                Points:         405
 RS_GRID|   Bounds   3           -202     202                Points:         405
 RS_GRID| Real space distribution over                                  4 groups
 RS_GRID| Real space distribution along direction                              1
 RS_GRID| Border size                                                         34
 RS_GRID| Real space distribution over                                  4 groups
 RS_GRID| Real space distribution along direction                              2
 RS_GRID| Border size                                                         34
 RS_GRID| Real space distribution over                                  6 groups
 RS_GRID| Real space distribution along direction                              3
 RS_GRID| Border size                                                         34
 RS_GRID|   Distribution                         Average         Max         Min
 RS_GRID|   Planes                                 169.2         170         169
 RS_GRID|   Distribution                         Average         Max         Min
 RS_GRID|   Planes                                 169.2         170         169
 RS_GRID|   Distribution                         Average         Max         Min
 RS_GRID|   Planes                                 135.5         136         135

 RS_GRID| Information for grid number                                          2
 RS_GRID|   Bounds   1           -120     119                Points:         240
 RS_GRID|   Bounds   2           -120     119                Points:         240
 RS_GRID|   Bounds   3           -120     119                Points:         240
 RS_GRID| Real space distribution over                                  4 groups
 RS_GRID| Real space distribution along direction                              1
 RS_GRID| Border size                                                         34
 RS_GRID| Real space distribution over                                  4 groups
 RS_GRID| Real space distribution along direction                              2
 RS_GRID| Border size                                                         34
 RS_GRID| Real space distribution over                                  6 groups
 RS_GRID| Real space distribution along direction                              3
 RS_GRID| Border size                                                         34
 RS_GRID|   Distribution                         Average         Max         Min
 RS_GRID|   Planes                                 128.0         128         128
 RS_GRID|   Distribution                         Average         Max         Min
 RS_GRID|   Planes                                 128.0         128         128
 RS_GRID|   Distribution                         Average         Max         Min
 RS_GRID|   Planes                                 108.0         108         108

 RS_GRID| Information for grid number                                          3
 RS_GRID|   Bounds   1            -67      67                Points:         135
 RS_GRID|   Bounds   2            -67      67                Points:         135
 RS_GRID|   Bounds   3            -67      67                Points:         135
 RS_GRID| Real space fully replicated
 RS_GRID| Group size                                                           1

 RS_GRID| Information for grid number                                          4
 RS_GRID|   Bounds   1            -40      39                Points:          80
 RS_GRID|   Bounds   2            -40      39                Points:          80
 RS_GRID|   Bounds   3            -40      39                Points:          80
 RS_GRID| Real space fully replicated
[...]
 tddfpt_compute_Aop_evects            6  7.0    0.000    0.000  181.674  181.674
 fhxc_kernel                          6  8.0    0.006    0.007  168.955  168.959
 fft_wrap_pw1pw2                   5375 10.6    0.108    0.142  164.692  168.524
 fft_wrap_pw1pw2_250               3803 11.8    6.580    7.972  158.681  162.562
 pw_poisson_solve                   331  8.7    4.386    5.419  158.464  158.698
 fft3d_ps                          5375 12.6   58.608   74.734  136.347  141.594
 ps_wavelet_solve                   331  9.7   74.468   85.570   94.892   96.381
 qs_rho_update_rho_low              333  6.4    0.003    0.004   80.184   80.188
 calculate_rho_elec                 333  7.4    1.619    1.921   80.033   80.037
 mp_alltoall_d54                    331 10.7   12.021   72.825   12.021   72.825
 mp_alltoall_z22v                  5375 14.6   66.051   71.488   66.051   71.488
 tddfpt_apply_coulomb               120  9.0    0.003    0.004   70.739   71.066
 xc_pw_derive                      1569 11.0    0.018    0.024   70.348   70.794
 density_rs2pw                      333  8.4    0.020    0.024   54.205   55.182
 qs_vxc_create                      211  8.0    0.002    0.003   46.063   46.063
 x_to_yz                           2424 13.8    7.120    8.500   40.889   42.431
 tddfpt_apply_xc_analytic           120  9.0    0.170    0.227   40.485   41.064
 yz_to_x                           2427 13.5    3.975    4.677   36.218   39.822
 xc_pw_divergence                   191 10.6    0.008    0.010   35.049   35.494
 transfer_rs2pw                    1665  9.6    0.046    0.064   31.770   32.172
 xc_rho_set_and_dset_create         212 10.0    0.518    0.649   29.917   32.172
 prepare_gapw_den                   332  8.4    0.005    0.006   28.451   28.874
 integrate_v_rspace                 191  9.0    0.005    0.006   27.259   27.576
 put_rho0_on_grid                   332  9.4    1.637    1.971   26.807   27.230
 potential_pw2rs                    191 10.0    0.066    0.072   26.260   26.613
 transfer_pw2rs                    1096 10.6    0.017    0.020   26.161   26.588
 mp_alltoall_d11v                 13006 11.9   17.934   26.103   17.934   26.103
 grid_collocate_task_list           333  8.4   22.903   24.636   22.903   24.636
 xc_vxc_pw_create                    71  9.0    0.466    0.572   24.365   24.365
 xc_calc_2nd_deriv_analytical      1080 10.1    1.438    1.568   23.914   23.976
 integrate_four_center              451  9.5    9.464   19.745   23.376   23.607
 xc_exc_calc                        140  9.0    0.679    0.806   21.696   21.696
 mp_waitany                       51390 12.0   20.237   21.589   20.237   21.589
 mp_sync                           2521 11.4   10.352   19.653   10.352   19.653
 transfer_rs2pw_250                 666 10.9    8.150    8.636   18.832   19.311
 transfer_pw2rs_250                 523 11.2    6.330    6.811   17.246   17.727
 integrate_vhg0_rspace              331  8.7    0.080    0.122   15.097   15.442
 mp_alltoall_d45                    332 10.7    7.705   14.379    7.705   14.379
 hfx_ks_matrix                      211  8.0    0.008    0.009   12.557   12.770
 tddfpt_apply_hfx                     6  8.0    0.002    0.003   12.221   12.222
 tddft_hfx_matrix                   240  9.0    0.006    0.007   10.836   10.899
 sum_up_and_integrate                71  8.0    0.001    0.001    9.736    9.764
 mp_sum_d                          6667  9.8    8.042    9.603    8.042    9.603
 pw_scatter_p                      2615 12.8    9.270    9.459    9.270    9.459
 pw_gather_p                       2760 12.4    7.559    8.538    7.559    8.538
 pw_derive                         2562 11.5    7.572    8.141    7.572    8.141
 cp2k_distribution_to_z_slices      331  9.7    3.177    3.432    7.612    8.061
 transfer_rs2pw_30                  333 10.4    3.140    3.273    7.268    7.411
 fft_wrap_pw1pw2_90                 524 11.0    0.179    0.259    4.572    5.780
 transfer_pw2rs_30                  191 12.0    3.247    3.552    5.337    5.594
 mp_waitall_1                    470014 13.5    3.824    5.538    3.824    5.538
 dbcsr_multiply_generic            3552  9.9    0.143    0.153    5.421    5.471
 pw_copy                           4030 10.7    5.122    5.441    5.122    5.441
 qs_scf_new_mos                     211  5.0    0.001    0.001    5.272    5.282
 qs_scf_loop_do_ot                  211  6.0    0.001    0.001    5.271    5.281
 pw_poisson_set                     332  9.7    0.011    0.014    5.128    5.216
 mp_sendrecv_dv                   63270 11.4    5.021    5.182    5.021    5.182
 init_scf_loop                        1  4.0    0.000    0.000    5.149    5.149
 rs_grid_zero                      1378 11.3    4.852    5.083    4.852    5.083
 ot_scf_mini                        211  7.0    0.003    0.003    4.911    4.922
 transfer_rs2pw_90                  333 10.4    1.118    1.221    4.151    4.420
 calculate_xc_2nd_deriv_atom        120  9.0    0.033    1.253    0.078    4.079
 gaVxcgb_GC                         764  9.6    0.039    3.769    0.039    3.769
 pw_copy_to_array                  2760 12.4    2.765    3.386    2.765    3.386
 pw_integral_ab_c1d_c1d_gs          331  9.7    2.421    2.441    2.813    3.207
 xc_functional_eval                2860 10.9    0.002    0.008    0.819    3.198
 pbe_lda_eval                      2860 11.9    0.817    3.190    0.817    3.190
 calculate_vxc_atom                 211  8.0    0.135    1.233    3.084    3.084
 cp_dbcsr_sm_fm_multiply            769  8.5    0.015    0.019    2.992    3.071
 transfer_pw2rs_90                  191 12.0    0.686    0.792    2.635    3.065
 multiply_cannon                   3552 10.9    0.321    0.329    2.813    2.942
 pw_axpy                           2738 10.0    2.554    2.746    2.554    2.746
 qs_ot_get_p                        212  8.0    0.001    0.001    2.329    2.334
 pw_copy_from_array                2615 12.8    1.844    2.310    1.844    2.310
 create_qs_kind_set                   1  2.0    0.000    0.000    2.292    2.293
 read_qs_kind                         4  3.0    1.272    1.294    2.292    2.293
 multiply_cannon_loop              3552 11.9    0.532    0.551    2.078    2.202
 dbcsr_complete_redistribute       2850 10.8    0.101    0.138    2.120    2.199
 mp_isend_dv                     198061 13.5    1.445    2.182    1.445    2.182
 pw_zero                           2692 10.5    1.905    2.094    1.905    2.094
 powell_optimize                 742105 11.0    1.822    1.865    1.822    1.865
 mp_isendrecv_dv                 121980 12.0    0.979    1.862    0.979    1.862
 qs_ot_p2m_diag                     211  9.0    0.004    0.007    1.761    1.770
 mp_irecv_dm3                     10278 12.0    0.874    1.653    0.874    1.653
 make_m2s                          7104 10.9    0.116    0.124    1.569    1.640
 ot_mini                            211  8.0    0.001    0.001    1.593    1.605
 calculate_rho_atom                1328  9.4    0.824    1.584    0.824    1.584
 mp_isend_dm3                     10278 12.0    0.862    1.521    0.862    1.521
 transfer_rs2pw_10                  333 10.4    0.579    0.622    1.472    1.513
 mp_sum_dm                         4015  8.9    1.133    1.489    1.133    1.489
 copy_dbcsr_to_fm                  1019  9.7    0.013    0.015    1.472    1.484
 calc_screening_functions             1 10.0    0.538    0.558    1.454    1.483
 qs_ot_get_derivative                71  9.0    0.001    0.001    1.462    1.464
 copy_fm_to_dbcsr                  1829  9.8    0.008    0.008    1.326    1.408
 calc_pair_dist_radii                 1 10.0    0.409    0.420    1.314    1.357
 mp_max_i                           799  5.4    0.960    1.248    0.960    1.248
 make_images                       7104 11.9    0.279    0.286    1.142    1.175
 qs_ot_get_derivative_diag           70 10.0    0.002    0.002    1.118    1.120
 cp_dbcsr_syevd                     211 10.0    0.012    0.012    1.103    1.107
 fft_wrap_pw1pw2_30                 524 11.0    0.033    0.038    0.961    1.102
 cp_dbcsr_sm_fm_multiply_core       769  9.5    0.002    0.002    1.059    1.090
 parser_read_line                269988  4.0    0.095    0.102    1.020    1.035
 Vh_1c_gg_integrals                 331  8.7    0.031    0.346    0.866    1.033
 transfer_pw2rs_10                  191 12.0    0.350    0.395    0.927    1.031
 rs_gather_matrices                 191 10.0    0.002    0.005    0.935    1.020
 mp_sum_dv                        16755 10.8    0.956    0.983    0.956    0.983
 offload_free_buffer                339  9.6    0.587    0.967    0.587    0.967
 grid_integrate_task_list           191 10.0    0.058    0.960    0.058    0.960
 parser_read_line_low               296  5.0    0.095    0.429    0.925    0.941
 scale_and_distribute               662 10.7    0.831    0.939    0.831    0.939
 cp_fm_syevd                        259 10.4    0.001    0.002    0.922    0.927
 broadcast_input_information        296  6.0    0.225    0.252    0.830    0.850
 pw_poisson_rebuild                 331  9.7    0.000    0.000    0.810    0.824
 ps_wavelet_create                    1 10.0    0.000    0.000    0.810    0.823
 RS_z_slice_distribution              1 11.0    0.677    0.762    0.810    0.823
 mp_alltoall_i11v                  9780 11.8    0.818    0.819    0.818    0.819
 cp_fm_redistribute_end             259 11.4    0.416    0.711    0.422    0.718
 qs_ot_get_orbitals                 211  8.0    0.001    0.001    0.674    0.679
 cp_dbcsr_plus_fm_fm_t              121  9.0    0.002    0.002    0.662    0.667
 tddfpt_orthonormalize_psi1_psi       7  6.9    0.011    0.012    0.656    0.656
 update_ks_atom                     331  8.4    0.018    0.032    0.282    0.635
 mp_bcast_dm                       2862  9.6    0.269    0.625    0.269    0.625
 cp_fm_syevd_base                   259 11.4    0.293    0.588    0.293    0.588
 dbcsr_desymmetrize_deep           1020 10.7    0.019    0.020    0.560    0.570
 mp_sum_l                         16081 10.7    0.510    0.562    0.510    0.562
 mp_alltoall_i22                   3940 11.8    0.430    0.511    0.430    0.511
 prepare_dr1dr                     1080 11.1    0.428    0.508    0.428    0.508
 tddfpt_apply_energy_diff             6  8.0    0.001    0.001    0.497    0.498
 multiply_cannon_metrocomm4       78144 12.9    0.231    0.247    0.447    0.495
 tddfpt_print_nto_analysis            1  6.0    0.002    0.003    0.466    0.466
 multiply_cannon_metrocomm2       74592 12.9    0.222    0.231    0.408    0.442
 make_images_sizes                 7104 12.9    0.007    0.008    0.424    0.442
 vxc_of_r_new                      1688  9.0    0.000    0.035    0.005    0.439
 mp_alltoall_i44                   7104 13.9    0.416    0.435    0.416    0.435
 multiply_cannon_metrocomm3       85248 12.9    0.135    0.138    0.345    0.427
 xc_2nd_deriv_of_r                  960 10.0    0.001    0.068    0.004    0.408
 tddfpt_compute_residual_vects        5  7.0    0.001    0.001    0.397    0.398
 fft_wrap_pw1pw2_10                 524 11.0    0.008    0.009    0.370    0.394
 integrate_four_center_getP         451 10.5    0.065    0.068    0.376    0.393
 mp_bcast_i_src                    1184  7.0    0.325    0.382    0.325    0.382
 integrate_four_center_dist_KS      451 10.5    0.066    0.069    0.370    0.373
 calculate_dm_sparse                212  7.0    0.001    0.001    0.362    0.367
 mp_rank_compare                   5375 13.6    0.323    0.352    0.323    0.352
 parallel_gemm_fm                  1035  8.3    0.001    0.001    0.332    0.344
 parallel_gemm_fm_gemm             1035  9.3    0.001    0.002    0.330    0.343
 cp_fm_gemm                        1035 10.3    0.329    0.342    0.329    0.342
 hybrid_alltoall_any               8124 13.6    0.062    0.069    0.317    0.342
 tddfpt_construct_ground_state_       1  6.0    0.000    0.000    0.325    0.327
 init_scf_run                         1  3.0    0.000    0.000    0.323    0.323
 scf_env_initial_rho_setup            1  4.0    0.000    0.000    0.323    0.323
 dbcsr_make_images_dense           4992 11.9    0.075    0.079    0.224    0.311
 mp_bcast_am_src                    296  7.0    0.257    0.287    0.276    0.309
 multiply_cannon_metrocomm1       85248 12.9    0.094    0.097    0.223    0.309
 dbcsr_create_new                 73297 12.4    0.206    0.213    0.277    0.285
 integrate_four_center_main         451 10.5    0.059    0.114    0.087    0.284
 qs_init_subsys                       1  2.0    0.008    0.010    0.263    0.264
 dbcsr_finalize                    8838 11.3    0.042    0.057    0.202    0.263
 qs_env_setup                         1  3.0    0.000    0.000    0.249    0.250
 qs_env_rebuild_pw_env                2  3.5    0.000    0.000    0.248    0.250
 pw_env_rebuild                       1  5.0    0.001    0.001    0.247    0.249
 pw_scale                           524  9.5    0.204    0.239    0.204    0.239
 integrate_four_center_bin        38099 11.5    0.028    0.237    0.028    0.237
 arnoldi_extremal                   212  9.0    0.004    0.004    0.230    0.233
 arnoldi_normal_ev                  213 10.0    0.004    0.004    0.228    0.232
 mp_alltoall_z11v                   524 14.0    0.210    0.232    0.210    0.232
 pw_grid_setup                        4  6.0    0.000    0.000    0.226    0.228
 pw_grid_setup_internal               4  7.0    0.006    0.007    0.226    0.227
 mp_allgather_i34                  3552 11.9    0.203    0.225    0.203    0.225
 dbcsr_make_dense_low             14522 12.8    0.072    0.074    0.109    0.224
 make_images_data                  7104 12.9    0.068    0.091    0.150    0.219
 create_kernel_env                    1  6.0    0.000    0.000    0.201    0.217
 xc_prep_2nd_deriv                    1  7.0    0.000    0.000    0.201    0.217
 cp_fm_redistribute_start           259 11.4    0.164    0.170    0.206    0.210
 cp_fm_geeig                         20  7.0    0.001    0.001    0.194    0.195
 mp_irecv_dv                     197116 13.5    0.150    0.193    0.150    0.193
 dbcsr_special_finalize           17760 12.9    0.045    0.047    0.144    0.176
 dbcsr_destroy                    71167 11.5    0.087    0.091    0.118    0.174
 multiply_cannon_multrec          85248 12.9    0.108    0.157    0.122    0.172
 mp_cart_sub                       2041 11.7    0.171    0.172    0.171    0.172
 build_subspace                     213 11.0    0.008    0.009    0.163    0.165
 pw_grid_sort                         4  8.0    0.106    0.109    0.156    0.161
 mp_cart_create                    2348 10.4    0.136    0.150    0.140    0.154
 dbcsr_data_release              333944 13.2    0.086    0.152    0.086    0.152
 cp_fm_trace_a1b1t1_aa             7470  8.0    0.034    0.037    0.150    0.152
 calculate_rho_atom_coeff           333  7.4    0.020    0.049    0.148    0.149
 dbcsr_merge_all                   7707 12.3    0.091    0.114    0.114    0.149
 mp_isend_iv                     167714 13.9    0.127    0.142    0.127    0.142
 rs_scatter_matrices                333  8.4    0.002    0.005    0.137    0.140
 xz_to_yz                           333 12.4    0.012    0.014    0.130    0.137
 dbcsr_iterator_start             59892 12.4    0.060    0.109    0.074    0.132
 qs_energies_init_hamiltonians        1  3.0    0.000    0.000    0.130    0.130
 dbcsr_matrix_vector_mult          1816 12.0    0.017    0.017    0.086    0.128
 build_core_hamiltonian_matrix        1  4.0    0.000    0.000    0.123    0.123
 ot_new_cg_direction                 71  9.0    0.001    0.001    0.122    0.122
 rs_grid_create                     337  9.7    0.002    0.002    0.022    0.122
 overlap_condnum                      1  5.0    0.000    0.000    0.121    0.121
 yz_to_xz                           191 14.0    0.011    0.012    0.103    0.121
 offload_create_buffer              339 10.6    0.020    0.120    0.020    0.120
 make_dense_data                  14522 13.8    0.006    0.048    0.007    0.115
 apply_preconditioner_dbcsr          72 10.0    0.000    0.000    0.108    0.111
 apply_single                        72 11.0    0.000    0.000    0.108    0.111
 dbcsr_data_new                  199210 13.0    0.083    0.103    0.083    0.103
 arnoldi_conjugate_gradient           5  6.0    0.003    0.003    0.096    0.096
 integrate_four_center_load         451 10.5    0.001    0.002    0.054    0.095
 hfx_load_balance                     1 11.0    0.000    0.000    0.053    0.094
 hfx_load_balance_range               1 12.0    0.000    0.000    0.047    0.088
 dbcsr_iterator_stop              59892 12.4    0.045    0.073    0.055    0.086
 dbcsr_sym_matrix_vector_mult       533  8.0    0.008    0.009    0.064    0.084
 setup_buffer_matrices             7104 11.9    0.026    0.027    0.080    0.082
 dbcsr_work_create                26557 12.5    0.048    0.053    0.069    0.081
 mp_irecv_iv                     168484 13.9    0.074    0.080    0.074    0.080
 dbcsr_add_d                       1164  8.8    0.002    0.002    0.010    0.074
 dbcsr_make_dense                  2042 11.1    0.008    0.009    0.043    0.074
 dbcsr_add_anytype                 1164  9.8    0.002    0.010    0.009    0.073
 scf_post_calculation_gpw             1  3.0    0.000    0.000    0.072    0.072
 write_available_results              1  4.0    0.000    0.000    0.071    0.072
 write_mo_free_results                1  5.0    0.006    0.008    0.071    0.072
 dbcsr_new_transposed              1580 10.8    0.009    0.010    0.068    0.071
 mp_sum_b                          4993 10.9    0.067    0.069    0.067    0.069
 dbcsr_col_vec_to_rep_row          2349 12.1    0.016    0.018    0.040    0.068
 dbcsr_work_destroy_all           26557 13.4    0.044    0.050    0.059    0.068
 tddfpt_orthogonalize_psi1_psi0       7  6.9    0.000    0.000    0.055    0.065
 dbcsr_merge_single_wm             7550 13.6    0.036    0.043    0.042    0.064
 copy_fm_to_dbcsr_bc               1829 10.8    0.019    0.021    0.058    0.062
 tddfpt_compute_ritz_vects            6  7.0    0.003    0.004    0.057    0.058
 mp_bcast_iv                        318  7.6    0.019    0.056    0.019    0.056
 dbcsr_make_undense                2042 11.1    0.013    0.025    0.026    0.056
 xc_pw_smooth                        71 10.0    0.000    0.000    0.038    0.055
 sort_shells                          4  9.0    0.049    0.054    0.049    0.054
 dbcsr_copy                        6846  9.8    0.022    0.024    0.050    0.052
 dbcsr_mm_multrec_init             3552 11.9    0.007    0.008    0.048    0.052
 quick_finalize                   11300 14.0    0.024    0.030    0.040    0.051
 prepare_preconditioner               1  5.0    0.000    0.000    0.049    0.050
 make_preconditioner                  1  6.0    0.000    0.000    0.049    0.050
 Gram_Schmidt_ortho                1690 11.9    0.002    0.003    0.040    0.050
 make_full_single_inverse             1  7.0    0.000    0.000    0.045    0.046
 dbcsr_mm_csr_init                 3552 12.9    0.033    0.036    0.041    0.045
 -------------------------------------------------------------------------------

 The number of warnings for this run is : 2
 
 -------------------------------------------------------------------------------
  **** **** ******  **  PROGRAM ENDED AT                 2025-04-24 18:14:18.333
 ***** ** ***  *** **   PROGRAM RAN ON                              i05r04c01s11
 **    ****   ******    PROGRAM RAN BY                                   di38fab
 ***** **    ** ** **   PROGRAM PROCESS ID                               2985618
  **** **  *******  **  PROGRAM STOPPED IN /hppfs/scratch/04/di38fab/07_MOL_non_
                                           aug/05_MOL_non_aug/05_MOL/W4-11+ALK/h
                                           ocn/cc-pVDZ/TDDFT
