 DBCSR| CPU Multiplication driver                                           BLAS (U)
 DBCSR| Multrec recursion limit                                              512 (U)
 DBCSR| Multiplication stack size                                           1000 (D)
 DBCSR| Maximum elements for images                                    UNLIMITED (U)
 DBCSR| Multiplicative factor virtual images                                   1 (U)
 DBCSR| Use multiplication densification                                       T (D)
 DBCSR| Multiplication size stacks                                             3 (U)
 DBCSR| Use memory pool for CPU allocation                                     F (U)
 DBCSR| Number of 3D layers                                               SINGLE (U)
 DBCSR| Use MPI memory allocation                                              F (U)
 DBCSR| Use RMA algorithm                                                      F (U)
 DBCSR| Use Communication thread                                               T (U)
 DBCSR| Communication thread load                                             75 (D)
 DBCSR| MPI: My process id                                                     0
 DBCSR| MPI: Number of processes                                             216
 DBCSR| OMP: Current number of threads                                         4
 DBCSR| OMP: Max number of threads                                             4
 DBCSR| Split modifier for TAS multiplication algorithm                  1.0E+00 (U)


  **** **** ******  **  PROGRAM STARTED AT               2025-04-11 17:55:38.829
 ***** ** ***  *** **   PROGRAM STARTED ON                          i08r08c05s08
 **    ****   ******    PROGRAM STARTED BY                               di38fab
 ***** **    ** ** **   PROGRAM PROCESS ID                                209530
  **** **  *******  **  PROGRAM STARTED IN /hppfs/scratch/04/di38fab/07_MOL_non_
                                           aug/05_MOL_non_aug/05_MOL/W4-11+ALK/b
                                           hf2/SZV/GW+BSE

 CP2K| version string:                 CP2K version 2025.1 (Development Version)
 CP2K| source code revision number:                             unknown revision
 CP2K| cp2kflags: omp libint fftw3 libxc parallel scalapack max_contr=4         
 CP2K| is freely available from                            https://www.cp2k.org/
 CP2K| Program compiled at                         Thu Apr 10 16:20:23 CEST 2025
 CP2K| Program compiled on                                               login01
 CP2K| Program compiled for                                        Supermuc-foss
 CP2K| Data directory path                  /hppfs/work/pn36zo/di38fab/cp2k/data
 CP2K| Input file name                                                    GW.inp

 GLOBAL| Force Environment number                                              1
 GLOBAL| Basis set file name            /hppfs/scratch/04/di38fab/04_TMD/BASIS_A
 GLOBAL| Potential file name            /hppfs/work/pn36zo/di38fab/cp2k/data/ALL
 GLOBAL| MM Potential file name                                     MM_POTENTIAL
 GLOBAL| Coordinate file name                                      __STD_INPUT__
 GLOBAL| Method name                                                        CP2K
 GLOBAL| Project name                                                       MoS2
 GLOBAL| Run type                                                         ENERGY
 GLOBAL| FFT library                                                       FFTW3
 GLOBAL| Diagonalization library                                       ScaLAPACK
 GLOBAL| DGEMM library                                                      BLAS
 GLOBAL| Orthonormality check for eigenvectors                          DISABLED
 GLOBAL| Matrix multiplication library                                 ScaLAPACK
 GLOBAL| All-to-all communication in single precision                          F
 GLOBAL| FFTs using library dependent lengths                                  F
 GLOBAL| Grid backend                                                       AUTO
 GLOBAL| Global print level                                               MEDIUM
 GLOBAL| MPI I/O enabled                                                       T
 GLOBAL| Total number of message passing processes                           216
 GLOBAL| Number of threads for this process                                    4
 GLOBAL| This output is from process                                           0
 GLOBAL| OpenMP stack size per thread (OMP_STACKSIZE)                    default
 GLOBAL| CPU model name             Intel(R) Xeon(R) Platinum 8174 CPU @ 3.10GHz

 MEMORY| system memory details [Kb]
 MEMORY|                        rank 0           min           max       average
 MEMORY| MemTotal             98436664      98436660      98436896      98436679
 MEMORY| MemFree              84371108      83783076      84822048      84262466
 MEMORY| Buffers                     0             0             0             0
 MEMORY| Cached                2390588       2375252       2412416       2396480
 MEMORY| Slab                  1174140       1141896       1256472       1197744
 MEMORY| SReclaimable           261940        259104        282564        269574
 MEMORY| MemLikelyFree        87023636      86455952      87472344      86928521


 *** Fundamental physical constants (SI units) ***

 *** Literature: B. J. Mohr and B. N. Taylor,
 ***             CODATA recommended values of the fundamental physical
 ***             constants: 2006, Web Version 5.1
 ***             http://physics.nist.gov/constants

 Speed of light in vacuum [m/s]                             2.99792458000000E+08
 Magnetic constant or permeability of vacuum [N/A**2]       1.25663706143592E-06
 Electric constant or permittivity of vacuum [F/m]          8.85418781762039E-12
 Planck constant (h) [J*s]                                  6.62606896000000E-34
 Planck constant (h-bar) [J*s]                              1.05457162825177E-34
 Elementary charge [C]                                      1.60217648700000E-19
 Electron mass [kg]                                         9.10938215000000E-31
 Electron g factor [ ]                                     -2.00231930436220E+00
 Proton mass [kg]                                           1.67262163700000E-27
 Fine-structure constant                                    7.29735253760000E-03
 Rydberg constant [1/m]                                     1.09737315685270E+07
 Avogadro constant [1/mol]                                  6.02214179000000E+23
 Boltzmann constant [J/K]                                   1.38065040000000E-23
 Atomic mass unit [kg]                                      1.66053878200000E-27
 Bohr radius [m]                                            5.29177208590000E-11

 *** Conversion factors ***

 [u] -> [a.u.]                                              1.82288848426455E+03
 [Angstrom] -> [Bohr] = [a.u.]                              1.88972613288564E+00
 [a.u.] = [Bohr] -> [Angstrom]                              5.29177208590000E-01
 [a.u.] -> [s]                                              2.41888432650478E-17
 [a.u.] -> [fs]                                             2.41888432650478E-02
 [a.u.] -> [J]                                              4.35974393937059E-18
 [a.u.] -> [N]                                              8.23872205491840E-08
 [a.u.] -> [K]                                              3.15774647902944E+05
 [a.u.] -> [kJ/mol]                                         2.62549961709828E+03
 [a.u.] -> [kcal/mol]                                       6.27509468713739E+02
 [a.u.] -> [Pa]                                             2.94210107994716E+13
 [a.u.] -> [bar]                                            2.94210107994716E+08
 [a.u.] -> [atm]                                            2.90362800883016E+08
 [a.u.] -> [eV]                                             2.72113838565563E+01
 [a.u.] -> [Hz]                                             6.57968392072181E+15
 [a.u.] -> [1/cm] (wave numbers)                            2.19474631370540E+05
 [a.u./Bohr**2] -> [1/cm]                                   5.14048714338585E+03
 

 CELL_TOP| Volume [angstrom^3]:                                     27000.000000
 CELL_TOP| Vector a [angstrom    30.000     0.000     0.000   |a| =    30.000000
 CELL_TOP| Vector b [angstrom     0.000    30.000     0.000   |b| =    30.000000
 CELL_TOP| Vector c [angstrom     0.000     0.000    30.000   |c| =    30.000000
 CELL_TOP| Angle (b,c), alpha [degree]:                                90.000000
 CELL_TOP| Angle (a,c), beta  [degree]:                                90.000000
 CELL_TOP| Angle (a,b), gamma [degree]:                                90.000000
 CELL_TOP| Numerically orthorhombic:                                         YES
 CELL_TOP| Periodicity                                                      NONE

 GENERATE|  Preliminary Number of Bonds generated:                             0
 GENERATE|  Achieved consistency in connectivity generation.

 CELL| Volume [angstrom^3]:                                         27000.000000
 CELL| Vector a [angstrom]:      30.000     0.000     0.000   |a| =    30.000000
 CELL| Vector b [angstrom]:       0.000    30.000     0.000   |b| =    30.000000
 CELL| Vector c [angstrom]:       0.000     0.000    30.000   |c| =    30.000000
 CELL| Angle (b,c), alpha [degree]:                                    90.000000
 CELL| Angle (a,c), beta  [degree]:                                    90.000000
 CELL| Angle (a,b), gamma [degree]:                                    90.000000
 CELL| Numerically orthorhombic:                                             YES
 CELL| Periodicity                                                          NONE

 CELL_REF| Volume [angstrom^3]:                                     27000.000000
 CELL_REF| Vector a [angstrom    30.000     0.000     0.000   |a| =    30.000000
 CELL_REF| Vector b [angstrom     0.000    30.000     0.000   |b| =    30.000000
 CELL_REF| Vector c [angstrom     0.000     0.000    30.000   |c| =    30.000000
 CELL_REF| Angle (b,c), alpha [degree]:                                90.000000
 CELL_REF| Angle (a,c), beta  [degree]:                                90.000000
 CELL_REF| Angle (a,b), gamma [degree]:                                90.000000
 CELL_REF| Numerically orthorhombic:                                         YES
 CELL_REF| Periodicity                                                      NONE

 *******************************************************************************
 *******************************************************************************
 **                                                                           **
 **     #####                         ##              ##                      **
 **    ##   ##            ##          ##              ##                      **
 **   ##     ##                       ##            ######                    **
 **   ##     ##  ##   ##  ##   #####  ##  ##   ####   ##    #####    #####    **
 **   ##     ##  ##   ##  ##  ##      ## ##   ##      ##   ##   ##  ##   ##   **
 **   ##  ## ##  ##   ##  ##  ##      ####     ###    ##   ######   ######    **
 **    ##  ###   ##   ##  ##  ##      ## ##      ##   ##   ##       ##        **
 **     #######   #####   ##   #####  ##  ##  ####    ##    #####   ##        **
 **           ##                                                    ##        **
 **                                                                           **
 **                                                ... make the atoms dance   **
 **                                                                           **
 **            Copyright (C) by CP2K developers group (2000-2025)             **
 **                      J. Chem. Phys. 152, 194103 (2020)                    **
 **                                                                           **
 *******************************************************************************

 DFT| Spin restricted Kohn-Sham (RKS) calculation                            RKS
 DFT| Multiplicity                                                             1
 DFT| Number of spin states                                                    1
 DFT| Charge                                                                   0
 DFT| Self-interaction correction (SIC)                                       NO
 DFT| Cutoffs: density                                              1.000000E-10
 DFT|          gradient                                             1.000000E-10
 DFT|          tau                                                  1.000000E-10
 DFT|          cutoff_smoothing_range                               0.000000E+00
 DFT| XC density smoothing                                                  NONE
 DFT| XC derivatives                                                          PW

 FUNCTIONAL| PBE:
 FUNCTIONAL| J.P.Perdew, K.Burke, M.Ernzerhof, Phys. Rev. Letter, vol. 77, n 18,
 FUNCTIONAL|  pp. 3865-3868, (1996)sx=0.750sc=1.000{spin unpolarized}           


 QS| Method:                                                                GAPW
 QS| Density plane wave grid type                        NON-SPHERICAL FULLSPACE
 QS| Number of grid levels:                                                    4
 QS| Density cutoff [a.u.]:                                                250.0
 QS| Multi grid cutoff [a.u.]: 1) grid level                               250.0
 QS|                           2) grid level                                83.3
 QS|                           3) grid level                                27.8
 QS|                           4) grid level                                 9.3
 QS| Grid level progression factor:                                          3.0
 QS| Relative density cutoff [a.u.]:                                        50.0
 QS| Interaction thresholds: eps_pgf_orb:                                1.0E-12
 QS|                         eps_filter_matrix:                          0.0E+00
 QS|                         eps_core_charge:                            1.0E-14
 QS|                         eps_rho_gspace:                             1.0E-12
 QS|                         eps_rho_rspace:                             1.0E-12
 QS|                         eps_gvg_rspace:                             1.0E-06
 QS|                         eps_ppl:                                    1.0E-02
 QS|                         eps_ppnl:                                   1.0E-08
 QS| GAPW|      One center basis from orbital basis primitives
 QS| GAPW|                   eps_fit:                                    1.0E-04
 QS| GAPW|                   eps_iso:                                    1.0E-12
 QS| GAPW|                   eps_svd:                                    1.0E-08
 QS| GAPW|                   eps_cpc:                                    1.0E-12
 QS| GAPW|   atom-r-grid: quadrature:                                     GC_LOG
 QS| GAPW|      atom-s-grid:  max l :                                          4
 QS| GAPW|      max_l_rho0 :                                                   2


 ATOMIC KIND INFORMATION

  1. Atomic kind: B                                     Number of atoms:       1

     Orbital Basis Set                                         SVP-MOLOPT-GGA-ae

       Number of orbital shell sets:                                           2
       Number of orbital shells:                                               6
       Number of primitive Cartesian functions:                               11
       Number of Cartesian basis functions:                                   15
       Number of spherical basis functions:                                   14
       Norm type:                                                              2

       Normalised Cartesian orbitals:

                        Set   Shell   Orbital            Exponent    Coefficient

                          1       1    2px               4.510873      -1.036243
                                                         0.881274      -0.583957
                                                         0.279625      -0.151722
                                                         0.082134      -0.004879
                          1       1    2py               4.510873      -1.036243
                                                         0.881274      -0.583957
                                                         0.279625      -0.151722
                                                         0.082134      -0.004879
                          1       1    2pz               4.510873      -1.036243
                                                         0.881274      -0.583957
                                                         0.279625      -0.151722
                                                         0.082134      -0.004879

                          1       2    3px               4.510873      -0.510604
                                                         0.881274      -0.581323
                                                         0.279625       0.094300
                                                         0.082134       0.052233
                          1       2    3py               4.510873      -0.510604
                                                         0.881274      -0.581323
                                                         0.279625       0.094300
                                                         0.082134       0.052233
                          1       2    3pz               4.510873      -0.510604
                                                         0.881274      -0.581323
                                                         0.279625       0.094300
                                                         0.082134       0.052233

                          1       3    3dx2              4.510873      -0.272354
                                                         0.881274       0.641739
                                                         0.279625       0.111576
                                                         0.082134       0.000404
                          1       3    3dxy              4.510873      -0.471731
                                                         0.881274       1.111524
                                                         0.279625       0.193255
                                                         0.082134       0.000700
                          1       3    3dxz              4.510873      -0.471731
                                                         0.881274       1.111524
                                                         0.279625       0.193255
                                                         0.082134       0.000700
                          1       3    3dy2              4.510873      -0.272354
                                                         0.881274       0.641739
                                                         0.279625       0.111576
                                                         0.082134       0.000404
                          1       3    3dyz              4.510873      -0.471731
                                                         0.881274       1.111524
                                                         0.279625       0.193255
                                                         0.082134       0.000700
                          1       3    3dz2              4.510873      -0.272354
                                                         0.881274       0.641739
                                                         0.279625       0.111576
                                                         0.082134       0.000404

                          2       1    1s              839.324562      -0.573042
                                                       126.174643      -1.097170
                                                        28.339532      -1.625259
                                                         7.329111      -1.470436
                                                         2.208031      -0.468381
                                                         0.410209      -0.026981
                                                         0.151694      -0.023850

                          2       2    2s              839.324562       0.050684
                                                       126.174643      -0.115654
                                                        28.339532      -0.168560
                                                         7.329111      -0.289389
                                                         2.208031      -0.246292
                                                         0.410209       0.238157
                                                         0.151694       0.084355

                          2       3    3s              839.324562      -2.590681
                                                       126.174643       0.127370
                                                        28.339532      -1.260776
                                                         7.329111      -0.567183
                                                         2.208031      -0.073452
                                                         0.410209      -0.458063
                                                         0.151694       0.280188

     RI Auxiliary Basis Set                                    aug-cc-pV5Z-RIFIT

       Number of orbital shell sets:                                          46
       Number of orbital shells:                                              46
       Number of primitive Cartesian functions:                               46
       Number of Cartesian basis functions:                                  371
       Number of spherical basis functions:                                  242
       Norm type:                                                              2

       Normalised Cartesian orbitals:

                        Set   Shell   Orbital            Exponent    Coefficient

                          1       1    1s                0.050000       0.075359

                          2       1    1px               0.065000       0.046782
                          2       1    1py               0.065000       0.046782
                          2       1    1pz               0.065000       0.046782

                          3       1    1dx2              0.070000       0.015679
                          3       1    1dxy              0.070000       0.027158
                          3       1    1dxz              0.070000       0.027158
                          3       1    1dy2              0.070000       0.015679
                          3       1    1dyz              0.070000       0.027158
                          3       1    1dz2              0.070000       0.015679

                          4       1    1fx3              0.085000       0.005743
                          4       1    1fx2y             0.085000       0.012842
                          4       1    1fx2z             0.085000       0.012842
                          4       1    1fxy2             0.085000       0.012842
                          4       1    1fxyz             0.085000       0.022243
                          4       1    1fxz2             0.085000       0.012842
                          4       1    1fy3              0.085000       0.005743
                          4       1    1fy2z             0.085000       0.012842
                          4       1    1fyz2             0.085000       0.012842
                          4       1    1fz3              0.085000       0.005743

                          5       1    1s                0.100115       0.126848

                          6       1    1gx4              0.139679       0.004961
                          6       1    1gx3y             0.139679       0.013125
                          6       1    1gx3z             0.139679       0.013125
                          6       1    1gx2y2            0.139679       0.016944
                          6       1    1gx2yz            0.139679       0.029348
                          6       1    1gx2z2            0.139679       0.016944
                          6       1    1gxy3             0.139679       0.013125
                          6       1    1gxy2z            0.139679       0.029348
                          6       1    1gxyz2            0.139679       0.029348
                          6       1    1gxz3             0.139679       0.013125
                          6       1    1gy4              0.139679       0.004961
                          6       1    1gy3z             0.139679       0.013125
                          6       1    1gy2z2            0.139679       0.016944
                          6       1    1gyz3             0.139679       0.013125
                          6       1    1gz4              0.139679       0.004961

                          7       1    1px               0.140195       0.122280
                          7       1    1py               0.140195       0.122280
                          7       1    1pz               0.140195       0.122280

                          8       1    1dx2              0.165073       0.070363
                          8       1    1dxy              0.165073       0.121872
                          8       1    1dxz              0.165073       0.121872
                          8       1    1dy2              0.165073       0.070363
                          8       1    1dyz              0.165073       0.121872
                          8       1    1dz2              0.165073       0.070363

                          9       1    1s                0.193579       0.207995

                         10       1    1fx3              0.242397       0.060693
                         10       1    1fx2y             0.242397       0.135714
                         10       1    1fx2z             0.242397       0.135714
                         10       1    1fxy2             0.242397       0.135714
                         10       1    1fxyz             0.242397       0.235064
                         10       1    1fxz2             0.242397       0.135714
                         10       1    1fy3              0.242397       0.060693
                         10       1    1fy2z             0.242397       0.135714
                         10       1    1fyz2             0.242397       0.135714
                         10       1    1fz3              0.242397       0.060693

                         11       1    1px               0.248681       0.250319
                         11       1    1py               0.248681       0.250319
                         11       1    1pz               0.248681       0.250319

                         12       1    1dx2              0.264649       0.160725
                         12       1    1dxy              0.264649       0.278383
                         12       1    1dxz              0.264649       0.278383
                         12       1    1dy2              0.264649       0.160725
                         12       1    1dyz              0.264649       0.278383
                         12       1    1dz2              0.264649       0.160725

                         13       1    1hx5              0.289652       0.013226
                         13       1    1hx4y             0.289652       0.039679
                         13       1    1hx4z             0.289652       0.039679
                         13       1    1hx3y2            0.289652       0.060611
                         13       1    1hx3yz            0.289652       0.104982
                         13       1    1hx3z2            0.289652       0.060611
                         13       1    1hx2y3            0.289652       0.060611
                         13       1    1hx2y2z           0.289652       0.135531
                         13       1    1hx2yz2           0.289652       0.135531
                         13       1    1hx2z3            0.289652       0.060611
                         13       1    1hxy4             0.289652       0.039679
                         13       1    1hxy3z            0.289652       0.104982
                         13       1    1hxy2z2           0.289652       0.135531
                         13       1    1hxyz3            0.289652       0.104982
                         13       1    1hxz4             0.289652       0.039679
                         13       1    1hy5              0.289652       0.013226
                         13       1    1hy4z             0.289652       0.039679
                         13       1    1hy3z2            0.289652       0.060611
                         13       1    1hy2z3            0.289652       0.060611
                         13       1    1hyz4             0.289652       0.039679
                         13       1    1hz5              0.289652       0.013226

                         14       1    1s                0.387495       0.350034

                         15       1    1gx4              0.393770       0.085773
                         15       1    1gx3y             0.393770       0.226935
                         15       1    1gx3z             0.393770       0.226935
                         15       1    1gx2y2            0.393770       0.292972
                         15       1    1gx2yz            0.393770       0.507442
                         15       1    1gx2z2            0.393770       0.292972
                         15       1    1gxy3             0.393770       0.226935
                         15       1    1gxy2z            0.393770       0.507442
                         15       1    1gxyz2            0.393770       0.507442
                         15       1    1gxz3             0.393770       0.226935
                         15       1    1gy4              0.393770       0.085773
                         15       1    1gy3z             0.393770       0.226935
                         15       1    1gy2z2            0.393770       0.292972
                         15       1    1gyz3             0.393770       0.226935
                         15       1    1gz4              0.393770       0.085773

                         16       1    1fx3              0.398860       0.186123
                         16       1    1fx2y             0.398860       0.416184
                         16       1    1fx2z             0.398860       0.416184
                         16       1    1fxy2             0.398860       0.416184
                         16       1    1fxyz             0.398860       0.720852
                         16       1    1fxz2             0.398860       0.416184
                         16       1    1fy3              0.398860       0.186123
                         16       1    1fy2z             0.398860       0.416184
                         16       1    1fyz2             0.398860       0.416184
                         16       1    1fz3              0.398860       0.186123

                         17       1    1px               0.445473       0.518760
                         17       1    1py               0.445473       0.518760
                         17       1    1pz               0.445473       0.518760

                         18       1    1dx2              0.495164       0.481083
                         18       1    1dxy              0.495164       0.833261
                         18       1    1dxz              0.495164       0.833261
                         18       1    1dy2              0.495164       0.481083
                         18       1    1dyz              0.495164       0.833261
                         18       1    1dz2              0.495164       0.481083

                         19       1    1ix6              0.528448       0.040920
                         19       1    1ix5y             0.528448       0.135716
                         19       1    1ix5z             0.528448       0.135716
                         19       1    1ix4y2            0.528448       0.235068
                         19       1    1ix4yz            0.528448       0.407149
                         19       1    1ix4z2            0.528448       0.235068
                         19       1    1ix3y3            0.528448       0.278136
                         19       1    1ix3y2z           0.528448       0.621931
                         19       1    1ix3yz2           0.528448       0.621931
                         19       1    1ix3z3            0.528448       0.278136
                         19       1    1ix2y4            0.528448       0.235068
                         19       1    1ix2y3z           0.528448       0.621931
                         19       1    1ix2y2z2          0.528448       0.802910
                         19       1    1ix2yz3           0.528448       0.621931
                         19       1    1ix2z4            0.528448       0.235068
                         19       1    1ixy5             0.528448       0.135716
                         19       1    1ixy4z            0.528448       0.407149
                         19       1    1ixy3z2           0.528448       0.621931
                         19       1    1ixy2z3           0.528448       0.621931
                         19       1    1ixyz4            0.528448       0.407149
                         19       1    1ixz5             0.528448       0.135716
                         19       1    1iy6              0.528448       0.040920
                         19       1    1iy5z             0.528448       0.135716
                         19       1    1iy4z2            0.528448       0.235068
                         19       1    1iy3z3            0.528448       0.278136
                         19       1    1iy2z4            0.528448       0.235068
                         19       1    1iyz5             0.528448       0.135716
                         19       1    1iz6              0.528448       0.040920

                         20       1    1s                0.591867       0.480926

                         21       1    1hx5              0.625900       0.161803
                         21       1    1hx4y             0.625900       0.485408
                         21       1    1hx4z             0.625900       0.485408
                         21       1    1hx3y2            0.625900       0.741472
                         21       1    1hx3yz            0.625900       1.284268
                         21       1    1hx3z2            0.625900       0.741472
                         21       1    1hx2y3            0.625900       0.741472
                         21       1    1hx2y2z           0.625900       1.657982
                         21       1    1hx2yz2           0.625900       1.657982
                         21       1    1hx2z3            0.625900       0.741472
                         21       1    1hxy4             0.625900       0.485408
                         21       1    1hxy3z            0.625900       1.284268
                         21       1    1hxy2z2           0.625900       1.657982
                         21       1    1hxyz3            0.625900       1.284268
                         21       1    1hxz4             0.625900       0.485408
                         21       1    1hy5              0.625900       0.161803
                         21       1    1hy4z             0.625900       0.485408
                         21       1    1hy3z2            0.625900       0.741472
                         21       1    1hy2z3            0.625900       0.741472
                         21       1    1hyz4             0.625900       0.485408
                         21       1    1hz5              0.625900       0.161803

                         22       1    1gx4              0.662307       0.358384
                         22       1    1gx3y             0.662307       0.948195
                         22       1    1gx3z             0.662307       0.948195
                         22       1    1gx2y2            0.662307       1.224114
                         22       1    1gx2yz            0.662307       2.120228
                         22       1    1gx2z2            0.662307       1.224114
                         22       1    1gxy3             0.662307       0.948195
                         22       1    1gxy2z            0.662307       2.120228
                         22       1    1gxyz2            0.662307       2.120228
                         22       1    1gxz3             0.662307       0.948195
                         22       1    1gy4              0.662307       0.358384
                         22       1    1gy3z             0.662307       0.948195
                         22       1    1gy2z2            0.662307       1.224114
                         22       1    1gyz3             0.662307       0.948195
                         22       1    1gz4              0.662307       0.358384

                         23       1    1fx3              0.724300       0.712477
                         23       1    1fx2y             0.724300       1.593148
                         23       1    1fx2z             0.724300       1.593148
                         23       1    1fxy2             0.724300       1.593148
                         23       1    1fxyz             0.724300       2.759413
                         23       1    1fxz2             0.724300       1.593148
                         23       1    1fy3              0.724300       0.712477
                         23       1    1fy2z             0.724300       1.593148
                         23       1    1fyz2             0.724300       1.593148
                         23       1    1fz3              0.724300       0.712477

                         24       1    1px               0.926420       1.295538
                         24       1    1py               0.926420       1.295538
                         24       1    1pz               0.926420       1.295538

                         25       1    1hx5              0.994333       0.728321
                         25       1    1hx4y             0.994333       2.184962
                         25       1    1hx4z             0.994333       2.184962
                         25       1    1hx3y2            0.994333       3.337585
                         25       1    1hx3yz            0.994333       5.780867
                         25       1    1hx3z2            0.994333       3.337585
                         25       1    1hx2y3            0.994333       3.337585
                         25       1    1hx2y2z           0.994333       7.463067
                         25       1    1hx2yz2           0.994333       7.463067
                         25       1    1hx2z3            0.994333       3.337585
                         25       1    1hxy4             0.994333       2.184962
                         25       1    1hxy3z            0.994333       5.780867
                         25       1    1hxy2z2           0.994333       7.463067
                         25       1    1hxyz3            0.994333       5.780867
                         25       1    1hxz4             0.994333       2.184962
                         25       1    1hy5              0.994333       0.728321
                         25       1    1hy4z             0.994333       2.184962
                         25       1    1hy3z2            0.994333       3.337585
                         25       1    1hy2z3            0.994333       3.337585
                         25       1    1hyz4             0.994333       2.184962
                         25       1    1hz5              0.994333       0.728321

                         26       1    1s                1.043310       0.735733

                         27       1    1dx2              1.056650       1.812546
                         27       1    1dxy              1.056650       3.139421
                         27       1    1dxz              1.056650       3.139421
                         27       1    1dy2              1.056650       1.812546
                         27       1    1dyz              1.056650       3.139421
                         27       1    1dz2              1.056650       1.812546

                         28       1    1ix6              1.130180       0.707915
                         28       1    1ix5y             1.130180       2.347890
                         28       1    1ix5z             1.130180       2.347890
                         28       1    1ix4y2            1.130180       4.066665
                         28       1    1ix4yz            1.130180       7.043670
                         28       1    1ix4z2            1.130180       4.066665
                         28       1    1ix3y3            1.130180       4.811742
                         28       1    1ix3y2z           1.130180      10.759383
                         28       1    1ix3yz2           1.130180      10.759383
                         28       1    1ix3z3            1.130180       4.811742
                         28       1    1ix2y4            1.130180       4.066665
                         28       1    1ix2y3z           1.130180      10.759383
                         28       1    1ix2y2z2          1.130180      13.890304
                         28       1    1ix2yz3           1.130180      10.759383
                         28       1    1ix2z4            1.130180       4.066665
                         28       1    1ixy5             1.130180       2.347890
                         28       1    1ixy4z            1.130180       7.043670
                         28       1    1ixy3z2           1.130180      10.759383
                         28       1    1ixy2z3           1.130180      10.759383
                         28       1    1ixyz4            1.130180       7.043670
                         28       1    1ixz5             1.130180       2.347890
                         28       1    1iy6              1.130180       0.707915
                         28       1    1iy5z             1.130180       2.347890
                         28       1    1iy4z2            1.130180       4.066665
                         28       1    1iy3z3            1.130180       4.811742
                         28       1    1iy2z4            1.130180       4.066665
                         28       1    1iyz5             1.130180       2.347890
                         28       1    1iz6              1.130180       0.707915

                         29       1    1gx4              1.364190       2.614215
                         29       1    1gx3y             1.364190       6.916563
                         29       1    1gx3z             1.364190       6.916563
                         29       1    1gx2y2            1.364190       8.929244
                         29       1    1gx2yz            1.364190      15.465904
                         29       1    1gx2z2            1.364190       8.929244
                         29       1    1gxy3             1.364190       6.916563
                         29       1    1gxy2z            1.364190      15.465904
                         29       1    1gxyz2            1.364190      15.465904
                         29       1    1gxz3             1.364190       6.916563
                         29       1    1gy4              1.364190       2.614215
                         29       1    1gy3z             1.364190       6.916563
                         29       1    1gy2z2            1.364190       8.929244
                         29       1    1gyz3             1.364190       6.916563
                         29       1    1gz4              1.364190       2.614215

                         30       1    1fx3              1.421170       3.246445
                         30       1    1fx2y             1.421170       7.259271
                         30       1    1fx2z             1.421170       7.259271
                         30       1    1fxy2             1.421170       7.259271
                         30       1    1fxyz             1.421170      12.573427
                         30       1    1fxz2             1.421170       7.259271
                         30       1    1fy3              1.421170       3.246445
                         30       1    1fy2z             1.421170       7.259271
                         30       1    1fyz2             1.421170       7.259271
                         30       1    1fz3              1.421170       3.246445

                         31       1    1px               1.677110       2.720458
                         31       1    1py               1.677110       2.720458
                         31       1    1pz               1.677110       2.720458

                         32       1    1hx5              1.852370       5.501224
                         32       1    1hx4y             1.852370      16.503672
                         32       1    1hx4z             1.852370      16.503672
                         32       1    1hx3y2            1.852370      25.209775
                         32       1    1hx3yz            1.852370      43.664611
                         32       1    1hx3z2            1.852370      25.209775
                         32       1    1hx2y3            1.852370      25.209775
                         32       1    1hx2y2z           1.852370      56.370770
                         32       1    1hx2yz2           1.852370      56.370770
                         32       1    1hx2z3            1.852370      25.209775
                         32       1    1hxy4             1.852370      16.503672
                         32       1    1hxy3z            1.852370      43.664611
                         32       1    1hxy2z2           1.852370      56.370770
                         32       1    1hxyz3            1.852370      43.664611
                         32       1    1hxz4             1.852370      16.503672
                         32       1    1hy5              1.852370       5.501224
                         32       1    1hy4z             1.852370      16.503672
                         32       1    1hy3z2            1.852370      25.209775
                         32       1    1hy2z3            1.852370      25.209775
                         32       1    1hyz4             1.852370      16.503672
                         32       1    1hz5              1.852370       5.501224

                         33       1    1s                2.103280       1.244752

                         34       1    1dx2              2.202870       6.556016
                         34       1    1dxy              2.202870      11.355352
                         34       1    1dxz              2.202870      11.355352
                         34       1    1dy2              2.202870       6.556016
                         34       1    1dyz              2.202870      11.355352
                         34       1    1dz2              2.202870       6.556016

                         35       1    1fx3              2.483560      11.399149
                         35       1    1fx2y             2.483560      25.489272
                         35       1    1fx2z             2.483560      25.489272
                         35       1    1fxy2             2.483560      25.489272
                         35       1    1fxyz             2.483560      44.148714
                         35       1    1fxz2             2.483560      25.489272
                         35       1    1fy3              2.483560      11.399149
                         35       1    1fy2z             2.483560      25.489272
                         35       1    1fyz2             2.483560      25.489272
                         35       1    1fz3              2.483560      11.399149

                         36       1    1px               3.548920       6.943211
                         36       1    1py               3.548920       6.943211
                         36       1    1pz               3.548920       6.943211

                         37       1    1gx4              3.560170      36.557791
                         37       1    1gx3y             3.560170      96.722824
                         37       1    1gx3z             3.560170      96.722824
                         37       1    1gx2y2            3.560170     124.868629
                         37       1    1gx2yz            3.560170     216.278810
                         37       1    1gx2z2            3.560170     124.868629
                         37       1    1gxy3             3.560170      96.722824
                         37       1    1gxy2z            3.560170     216.278810
                         37       1    1gxyz2            3.560170     216.278810
                         37       1    1gxz3             3.560170      96.722824
                         37       1    1gy4              3.560170      36.557791
                         37       1    1gy3z             3.560170      96.722824
                         37       1    1gy2z2            3.560170     124.868629
                         37       1    1gyz3             3.560170      96.722824
                         37       1    1gz4              3.560170      36.557791

                         38       1    1s                4.124940       2.062877

                         39       1    1dx2              4.554610      23.372171
                         39       1    1dxy              4.554610      40.481787
                         39       1    1dxz              4.554610      40.481787
                         39       1    1dy2              4.554610      23.372171
                         39       1    1dyz              4.554610      40.481787
                         39       1    1dz2              4.554610      23.372171

                         40       1    1fx3              4.908970      52.805943
                         40       1    1fx2y             4.908970     118.077678
                         40       1    1fx2z             4.908970     118.077678
                         40       1    1fxy2             4.908970     118.077678
                         40       1    1fxyz             4.908970     204.516537
                         40       1    1fxz2             4.908970     118.077678
                         40       1    1fy3              4.908970      52.805943
                         40       1    1fy2z             4.908970     118.077678
                         40       1    1fyz2             4.908970     118.077678
                         40       1    1fz3              4.908970      52.805943

                         41       1    1s                9.063320       3.722850

                         42       1    1px               9.892560      25.007827
                         42       1    1py               9.892560      25.007827
                         42       1    1pz               9.892560      25.007827

                         43       1    1dx2             10.808500     106.047138
                         43       1    1dxy             10.808500     183.679031
                         43       1    1dxz             10.808500     183.679031
                         43       1    1dy2             10.808500     106.047138
                         43       1    1dyz             10.808500     183.679031
                         43       1    1dz2             10.808500     106.047138

                         44       1    1s               34.757300      10.202218

                         45       1    1px              36.802300     129.206330
                         45       1    1py              36.802300     129.206330
                         45       1    1pz              36.802300     129.206330

                         46       1    1s              142.715000      29.428106

       Atomic covalent radius [Angstrom]:                                  0.820

       Atomic van der Waals radius [Angstrom]:                             1.920

     The atoms of this atomic kind are PAW atoms (GAPW):
       Hard Gaussian function radius:                                      1.512
       Rho0 radius:                                                        1.512
       Maximum GTO radius used for PAW projector construction:            24.566

     GAPW Soft Basis Set                                  SVP-MOLOPT-GGA-ae_soft

       Number of orbital shell sets:                                           2
       Number of orbital shells:                                               6
       Number of primitive Cartesian functions:                                6
       Number of Cartesian basis functions:                                   15
       Number of spherical basis functions:                                   14
       Norm type:                                                              2

       Normalised Cartesian orbitals:

                        Set   Shell   Orbital            Exponent    Coefficient

                          1       1    2px               0.881274      -0.583957
                                                         0.279625      -0.151722
                                                         0.082134      -0.004879
                          1       1    2py               0.881274      -0.583957
                                                         0.279625      -0.151722
                                                         0.082134      -0.004879
                          1       1    2pz               0.881274      -0.583957
                                                         0.279625      -0.151722
                                                         0.082134      -0.004879

                          1       2    3px               0.881274      -0.581323
                                                         0.279625       0.094300
                                                         0.082134       0.052233
                          1       2    3py               0.881274      -0.581323
                                                         0.279625       0.094300
                                                         0.082134       0.052233
                          1       2    3pz               0.881274      -0.581323
                                                         0.279625       0.094300
                                                         0.082134       0.052233

                          1       3    3dx2              0.881274       0.641739
                                                         0.279625       0.111576
                                                         0.082134       0.000404
                          1       3    3dxy              0.881274       1.111524
                                                         0.279625       0.193255
                                                         0.082134       0.000700
                          1       3    3dxz              0.881274       1.111524
                                                         0.279625       0.193255
                                                         0.082134       0.000700
                          1       3    3dy2              0.881274       0.641739
                                                         0.279625       0.111576
                                                         0.082134       0.000404
                          1       3    3dyz              0.881274       1.111524
                                                         0.279625       0.193255
                                                         0.082134       0.000700
                          1       3    3dz2              0.881274       0.641739
                                                         0.279625       0.111576
                                                         0.082134       0.000404

                          2       1    1s                2.208031      -0.468381
                                                         0.410209      -0.026981
                                                         0.151694      -0.023850

                          2       2    2s                2.208031      -0.246292
                                                         0.410209       0.238157
                                                         0.151694       0.084355

                          2       3    3s                2.208031      -0.073452
                                                         0.410209      -0.458063
                                                         0.151694       0.280188

     AE Potential information for                                            ALL

       Description:                                       All-electron potential
                                          Krack, Parrinello, PCCP 2, 2105 (2000)

       Gaussian exponent of the core charge distribution:               2.655410
       Electronic configuration (s p d ...):                           4   1   0

  2. Atomic kind: H                                     Number of atoms:       1

     Orbital Basis Set                                         SVP-MOLOPT-GGA-ae

       Number of orbital shell sets:                                           1
       Number of orbital shells:                                               3
       Number of primitive Cartesian functions:                                4
       Number of Cartesian basis functions:                                    5
       Number of spherical basis functions:                                    5
       Norm type:                                                              2

       Normalised Cartesian orbitals:

                        Set   Shell   Orbital            Exponent    Coefficient

                          1       1    2s               12.248855       0.310040
                                                         1.446686       0.373852
                                                         0.374948       0.205449
                                                         0.111920       0.009149

                          1       2    3s               12.248855      -0.144753
                                                         1.446686      -0.188851
                                                         0.374948       0.007287
                                                         0.111920       0.143650

                          1       3    3px              12.248855      -0.764411
                                                         1.446686       0.896497
                                                         0.374948       0.280770
                                                         0.111920       0.007225
                          1       3    3py              12.248855      -0.764411
                                                         1.446686       0.896497
                                                         0.374948       0.280770
                                                         0.111920       0.007225
                          1       3    3pz              12.248855      -0.764411
                                                         1.446686       0.896497
                                                         0.374948       0.280770
                                                         0.111920       0.007225

     RI Auxiliary Basis Set                                    aug-cc-pV5Z-RIFIT

       Number of orbital shell sets:                                          27
       Number of orbital shells:                                              27
       Number of primitive Cartesian functions:                               27
       Number of Cartesian basis functions:                                  182
       Number of spherical basis functions:                                  127
       Norm type:                                                              2

       Normalised Cartesian orbitals:

                        Set   Shell   Orbital            Exponent    Coefficient

                          1       1    1s                0.110911       0.136975

                          2       1    1px               0.196067       0.185971
                          2       1    1py               0.196067       0.185971
                          2       1    1pz               0.196067       0.185971

                          3       1    1dx2              0.233601       0.129193
                          3       1    1dxy              0.233601       0.223769
                          3       1    1dxz              0.233601       0.223769
                          3       1    1dy2              0.233601       0.129193
                          3       1    1dyz              0.233601       0.223769
                          3       1    1dz2              0.233601       0.129193

                          4       1    1fx3              0.236155       0.057233
                          4       1    1fx2y             0.236155       0.127977
                          4       1    1fx2z             0.236155       0.127977
                          4       1    1fxy2             0.236155       0.127977
                          4       1    1fxyz             0.236155       0.221663
                          4       1    1fxz2             0.236155       0.127977
                          4       1    1fy3              0.236155       0.057233
                          4       1    1fy2z             0.236155       0.127977
                          4       1    1fyz2             0.236155       0.127977
                          4       1    1fz3              0.236155       0.057233

                          5       1    1s                0.236911       0.242019

                          6       1    1px               0.347892       0.380843
                          6       1    1py               0.347892       0.380843
                          6       1    1pz               0.347892       0.380843

                          7       1    1s                0.506054       0.427620

                          8       1    1fx3              0.572873       0.420326
                          8       1    1fx2y             0.572873       0.939876
                          8       1    1fx2z             0.572873       0.939876
                          8       1    1fxy2             0.572873       0.939876
                          8       1    1fxyz             0.572873       1.627914
                          8       1    1fxz2             0.572873       0.939876
                          8       1    1fy3              0.572873       0.420326
                          8       1    1fy2z             0.572873       0.939876
                          8       1    1fyz2             0.572873       0.939876
                          8       1    1fz3              0.572873       0.420326

                          9       1    1dx2              0.625366       0.723843
                          9       1    1dxy              0.625366       1.253733
                          9       1    1dxz              0.625366       1.253733
                          9       1    1dy2              0.625366       0.723843
                          9       1    1dyz              0.625366       1.253733
                          9       1    1dz2              0.625366       0.723843

                         10       1    1gx4              0.796320       0.594876
                         10       1    1gx3y             0.796320       1.573894
                         10       1    1gx3z             0.796320       1.573894
                         10       1    1gx2y2            0.796320       2.031888
                         10       1    1gx2yz            0.796320       3.519333
                         10       1    1gx2z2            0.796320       2.031888
                         10       1    1gxy3             0.796320       1.573894
                         10       1    1gxy2z            0.796320       3.519333
                         10       1    1gxyz2            0.796320       3.519333
                         10       1    1gxz3             0.796320       1.573894
                         10       1    1gy4              0.796320       0.594876
                         10       1    1gy3z             0.796320       1.573894
                         10       1    1gy2z2            0.796320       2.031888
                         10       1    1gyz3             0.796320       1.573894
                         10       1    1gz4              0.796320       0.594876

                         11       1    1px               0.805545       1.087808
                         11       1    1py               0.805545       1.087808
                         11       1    1pz               0.805545       1.087808

                         12       1    1dx2              0.979237       1.586584
                         12       1    1dxy              0.979237       2.748044
                         12       1    1dxz              0.979237       2.748044
                         12       1    1dy2              0.979237       1.586584
                         12       1    1dyz              0.979237       2.748044
                         12       1    1dz2              0.979237       1.586584

                         13       1    1s                0.994218       0.709613

                         14       1    1hx5              1.034980       0.829608
                         14       1    1hx4y             1.034980       2.488825
                         14       1    1hx4z             1.034980       2.488825
                         14       1    1hx3y2            1.034980       3.801742
                         14       1    1hx3yz            1.034980       6.584811
                         14       1    1hx3z2            1.034980       3.801742
                         14       1    1hx2y3            1.034980       3.801742
                         14       1    1hx2y2z           1.034980       8.500954
                         14       1    1hx2yz2           1.034980       8.500954
                         14       1    1hx2z3            1.034980       3.801742
                         14       1    1hxy4             1.034980       2.488825
                         14       1    1hxy3z            1.034980       6.584811
                         14       1    1hxy2z2           1.034980       8.500954
                         14       1    1hxyz3            1.034980       6.584811
                         14       1    1hxz4             1.034980       2.488825
                         14       1    1hy5              1.034980       0.829608
                         14       1    1hy4z             1.034980       2.488825
                         14       1    1hy3z2            1.034980       3.801742
                         14       1    1hy2z3            1.034980       3.801742
                         14       1    1hyz4             1.034980       2.488825
                         14       1    1hz5              1.034980       0.829608

                         15       1    1fx3              1.198110       2.210915
                         15       1    1fx2y             1.198110       4.943756
                         15       1    1fx2z             1.198110       4.943756
                         15       1    1fxy2             1.198110       4.943756
                         15       1    1fxyz             1.198110       8.562836
                         15       1    1fxz2             1.198110       4.943756
                         15       1    1fy3              1.198110       2.210915
                         15       1    1fy2z             1.198110       4.943756
                         15       1    1fyz2             1.198110       4.943756
                         15       1    1fz3              1.198110       2.210915

                         16       1    1gx4              1.231920       1.974865
                         16       1    1gx3y             1.231920       5.225001
                         16       1    1gx3z             1.231920       5.225001
                         16       1    1gx2y2            1.231920       6.745447
                         16       1    1gx2yz            1.231920      11.683456
                         16       1    1gx2z2            1.231920       6.745447
                         16       1    1gxy3             1.231920       5.225001
                         16       1    1gxy2z            1.231920      11.683456
                         16       1    1gxyz2            1.231920      11.683456
                         16       1    1gxz3             1.231920       5.225001
                         16       1    1gy4              1.231920       1.974865
                         16       1    1gy3z             1.231920       5.225001
                         16       1    1gy2z2            1.231920       6.745447
                         16       1    1gyz3             1.231920       5.225001
                         16       1    1gz4              1.231920       1.974865

                         17       1    1px               1.248660       1.881462
                         17       1    1py               1.248660       1.881462
                         17       1    1pz               1.248660       1.881462

                         18       1    1dx2              1.710630       4.211459
                         18       1    1dxy              1.710630       7.294461
                         18       1    1dxz              1.710630       7.294461
                         18       1    1dy2              1.710630       4.211459
                         18       1    1dyz              1.710630       7.294461
                         18       1    1dz2              1.710630       4.211459

                         19       1    1s                1.775100       1.096042

                         20       1    1px               2.052170       3.501118
                         20       1    1py               2.052170       3.501118
                         20       1    1pz               2.052170       3.501118

                         21       1    1gx4              2.987800      22.576266
                         21       1    1gx3y             2.987800      59.731185
                         21       1    1gx3z             2.987800      59.731185
                         21       1    1gx2y2            2.987800      77.112629
                         21       1    1gx2yz            2.987800     133.562991
                         21       1    1gx2z2            2.987800      77.112629
                         21       1    1gxy3             2.987800      59.731185
                         21       1    1gxy2z            2.987800     133.562991
                         21       1    1gxyz2            2.987800     133.562991
                         21       1    1gxz3             2.987800      59.731185
                         21       1    1gy4              2.987800      22.576266
                         21       1    1gy3z             2.987800      59.731185
                         21       1    1gy2z2            2.987800      77.112629
                         21       1    1gyz3             2.987800      59.731185
                         21       1    1gz4              2.987800      22.576266

                         22       1    1fx3              3.101510      18.792914
                         22       1    1fx2y             3.101510      42.022232
                         22       1    1fx2z             3.101510      42.022232
                         22       1    1fxy2             3.101510      42.022232
                         22       1    1fxyz             3.101510      72.784641
                         22       1    1fxz2             3.101510      42.022232
                         22       1    1fy3              3.101510      18.792914
                         22       1    1fy2z             3.101510      42.022232
                         22       1    1fyz2             3.101510      42.022232
                         22       1    1fz3              3.101510      18.792914

                         23       1    1hx5              3.247390      34.106027
                         23       1    1hx4y             3.247390     102.318080
                         23       1    1hx4z             3.247390     102.318080
                         23       1    1hx3y2            3.247390     156.293448
                         23       1    1hx3yz            3.247390     270.708193
                         23       1    1hx3z2            3.247390     156.293448
                         23       1    1hx2y3            3.247390     156.293448
                         23       1    1hx2y2z           3.247390     349.482775
                         23       1    1hx2yz2           3.247390     349.482775
                         23       1    1hx2z3            3.247390     156.293448
                         23       1    1hxy4             3.247390     102.318080
                         23       1    1hxy3z            3.247390     270.708193
                         23       1    1hxy2z2           3.247390     349.482775
                         23       1    1hxyz3            3.247390     270.708193
                         23       1    1hxz4             3.247390     102.318080
                         23       1    1hy5              3.247390      34.106027
                         23       1    1hy4z             3.247390     102.318080
                         23       1    1hy3z2            3.247390     156.293448
                         23       1    1hy2z3            3.247390     156.293448
                         23       1    1hyz4             3.247390     102.318080
                         23       1    1hz5              3.247390      34.106027

                         24       1    1dx2              3.858160      17.481346
                         24       1    1dxy              3.858160      30.278579
                         24       1    1dxz              3.858160      30.278579
                         24       1    1dy2              3.858160      17.481346
                         24       1    1dyz              3.858160      30.278579
                         24       1    1dz2              3.858160      17.481346

                         25       1    1s                4.922970       2.355486

                         26       1    1px               5.974580      13.314483
                         26       1    1py               5.974580      13.314483
                         26       1    1pz               5.974580      13.314483

                         27       1    1s               23.321500       7.563581

       Atomic covalent radius [Angstrom]:                                  0.320

       Atomic van der Waals radius [Angstrom]:                             1.090

     The atoms of this atomic kind are PAW atoms (GAPW):
       Hard Gaussian function radius:                                      1.200
       Rho0 radius:                                                        1.200
       Maximum GTO radius used for PAW projector construction:            24.566

     GAPW Soft Basis Set                                  SVP-MOLOPT-GGA-ae_soft

       Number of orbital shell sets:                                           1
       Number of orbital shells:                                               3
       Number of primitive Cartesian functions:                                3
       Number of Cartesian basis functions:                                    5
       Number of spherical basis functions:                                    5
       Norm type:                                                              2

       Normalised Cartesian orbitals:

                        Set   Shell   Orbital            Exponent    Coefficient

                          1       1    2s                1.446686       0.373852
                                                         0.374948       0.205449
                                                         0.111920       0.009149

                          1       2    3s                1.446686      -0.188851
                                                         0.374948       0.007287
                                                         0.111920       0.143650

                          1       3    3px               1.446686       0.896497
                                                         0.374948       0.280770
                                                         0.111920       0.007225
                          1       3    3py               1.446686       0.896497
                                                         0.374948       0.280770
                                                         0.111920       0.007225
                          1       3    3pz               1.446686       0.896497
                                                         0.374948       0.280770
                                                         0.111920       0.007225

     AE Potential information for                                            ALL

       Description:                                       All-electron potential
                                          Krack, Parrinello, PCCP 2, 2105 (2000)

       Gaussian exponent of the core charge distribution:              12.500000
       Electronic configuration (s p d ...):                           1   0   0

  3. Atomic kind: F                                     Number of atoms:       2

     Orbital Basis Set                                         SVP-MOLOPT-GGA-ae

       Number of orbital shell sets:                                           2
       Number of orbital shells:                                               6
       Number of primitive Cartesian functions:                               11
       Number of Cartesian basis functions:                                   15
       Number of spherical basis functions:                                   14
       Norm type:                                                              2

       Normalised Cartesian orbitals:

                        Set   Shell   Orbital            Exponent    Coefficient

                          1       1    2px              20.861065      -5.316254
                                                         3.472802      -2.702296
                                                         0.856285      -0.734779
                                                         0.221407      -0.026524
                          1       1    2py              20.861065      -5.316254
                                                         3.472802      -2.702296
                                                         0.856285      -0.734779
                                                         0.221407      -0.026524
                          1       1    2pz              20.861065      -5.316254
                                                         3.472802      -2.702296
                                                         0.856285      -0.734779
[...]
 cp_fm_syevd_base                    45  7.9    0.206    0.413    0.206    0.413
 pw_derive                          354 11.3    0.378    0.409    0.378    0.409
 gaVxcgb_GC                          78  9.0    0.005    0.399    0.005    0.399
 mp_isendrecv_dv                  34400 11.9    0.217    0.398    0.217    0.398
 mp_max_i                           558  2.5    0.113    0.394    0.113    0.394
 cp_fm_cholesky_decompose           102  9.0    0.384    0.389    0.384    0.389
 compute_Erpa_by_freq_int           100  8.0    0.001    0.001    0.384    0.385
 Vh_1c_gg_integrals                  40  8.0    0.003    0.028    0.085    0.357
 mp_bcast_i_src                    1004  7.0    0.253    0.344    0.253    0.344
 pw_integral_ab_c1d_c1d_gs           40  8.9    0.129    0.131    0.169    0.338
 mp2_ri_gpw_compute_in                1  5.0    0.000    0.000    0.329    0.329
 mp_bcast_am_src                    251  7.0    0.245    0.294    0.267    0.316
 pw_copy                            595 10.6    0.284    0.312    0.284    0.312
 mp_sum_dm                          524  7.6    0.248    0.307    0.248    0.307
 mp2_ri_gpw_compute_in_loop           1  6.0    0.000    0.000    0.292    0.292
 contract_B_L                         4  7.0    0.002    0.002    0.255    0.275
 transfer_pw2rs_10                   40 11.9    0.096    0.120    0.255    0.268
 init_scf_run                         1  3.0    0.000    0.000    0.266    0.266
 transfer_rs2pw_10                   40  9.0    0.097    0.103    0.259    0.264
 pw_copy_to_array                   397 11.8    0.162    0.256    0.162    0.256
 integrate_four_center_main          40  9.9    0.007    0.120    0.015    0.252
 scf_env_initial_rho_setup            1  4.0    0.000    0.000    0.251    0.252
 integrate_four_center_bin         3257 11.0    0.008    0.249    0.008    0.249
 pw_poisson_set                      41  8.9    0.001    0.001    0.238    0.243
 mp_irecv_dm3                      1452 11.4    0.111    0.230    0.111    0.230
 mp_isend_dm3                      1452 11.4    0.108    0.230    0.108    0.230
 start_bse_calculation                1  7.0    0.000    0.001    0.204    0.204
 mp_rank_compare                    831 12.9    0.197    0.201    0.197    0.201
 calculate_dm_sparse                 39  6.0    0.000    0.000    0.186    0.192
 cp_dbcsr_plus_fm_fm_t               39  7.0    0.001    0.001    0.186    0.192
 mp_sum_dv                        12097 12.5    0.167    0.191    0.167    0.191
 calculate_rho_atom                 120  8.9    0.082    0.188    0.082    0.189
 rs_gather_matrices                  40  9.9    0.000    0.002    0.156    0.171
 dbt_total                            8  8.0    0.000    0.000    0.165    0.165
 dbt_contract                         4  9.0    0.001    0.001    0.160    0.160
 grid_integrate_task_list            40  9.9    0.009    0.155    0.009    0.155
 qs_init_subsys                       1  2.0    0.005    0.009    0.155    0.155
 dbcsr_multiply_generic              76  8.1    0.004    0.004    0.147    0.151
 qs_env_setup                         1  3.0    0.000    0.000    0.144    0.146
 qs_env_rebuild_pw_env                2  3.5    0.000    0.000    0.143    0.145
 pw_env_rebuild                       1  5.0    0.001    0.001    0.143    0.144
 fft_wrap_pw1pw2_30                  80 10.5    0.002    0.003    0.135    0.144
 pw_copy_from_array                 434 12.1    0.111    0.143    0.111    0.143
 pw_axpy                            395  9.3    0.128    0.141    0.128    0.141
 qs_energies_init_hamiltonians        1  3.0    0.000    0.000    0.139    0.139
 pw_grid_setup                        4  6.0    0.000    0.000    0.130    0.131
 pw_grid_setup_internal               4  7.0    0.003    0.005    0.129    0.131
 build_core_hamiltonian_matrix        1  4.0    0.000    0.000    0.127    0.127
 mp_cart_create                     333 10.6    0.105    0.126    0.106    0.126
 overlap_condnum                      1  5.0    0.000    0.000    0.125    0.126
 dbcsr_complete_redistribute        148  8.5    0.007    0.009    0.118    0.123
 mp_isend_dv                      13926 12.0    0.085    0.119    0.085    0.119
 dbt_tas_multiply                     8 11.5    0.000    0.000    0.117    0.117
 dbt_tas_total                        8 12.5    0.002    0.005    0.113    0.113
 diagonalize_C                        1  8.0    0.000    0.000    0.109    0.110
 cp_fm_to_fm_submat_general         112 10.1    0.097    0.109    0.097    0.109
 dbt_pgrid_create_expert             84 10.8    0.000    0.000    0.087    0.107
 offload_free_buffer                 48  8.0    0.089    0.106    0.089    0.106
 mp_alltoall_z11v                   160 13.5    0.094    0.102    0.094    0.102
 copy_dbcsr_to_fm                    66  6.7    0.001    0.001    0.098    0.101
 mp_sum_l                           788  5.6    0.077    0.094    0.077    0.094
 arnoldi_conjugate_gradient           5  6.0    0.002    0.003    0.093    0.093
 pw_zero                            236 10.3    0.078    0.088    0.078    0.088
 integrate_four_center_getP          40  9.9    0.013    0.014    0.085    0.086
 mp2_eri_3c_integrate                 1  7.0    0.000    0.000    0.020    0.076
 integrate_set_3c                   124  8.0    0.018    0.071    0.019    0.076
 pw_grid_sort                         4  8.0    0.043    0.045    0.068    0.075
 yz_to_xz                            80 13.9    0.007    0.008    0.067    0.075
 cp_fm_power                          2  7.5    0.001    0.001    0.072    0.073
 integrate_four_center_dist_KS       40  9.9    0.013    0.014    0.070    0.071
 copy_fm_to_dbcsr                    82  8.1    0.000    0.000    0.065    0.070
 update_ks_atom                      40  8.0    0.003    0.006    0.037    0.070
 write_mo_set_to_restart             39  5.0    0.001    0.068    0.069    0.069
 write_mo_set_low                     2  6.0    0.000    0.000    0.068    0.068
 cp_fm_write_unformatted              2  7.0    0.068    0.068    0.068    0.068
 multiply_cannon                     76  9.1    0.008    0.008    0.064    0.067
 mp_bcast_dm                        320  8.9    0.034    0.067    0.034    0.067
 integrate_four_center_load          40  9.9    0.000    0.001    0.051    0.066
 hfx_load_balance                     1 11.0    0.000    0.000    0.051    0.066
 fft_wrap_pw1pw2_10                  80 10.5    0.001    0.001    0.064    0.066
 cp_fm_uplo_to_full                 104  8.0    0.014    0.065    0.014    0.065
 make_m2s                           152  9.1    0.003    0.003    0.055    0.060
 mp_bcast_iv                        308  6.9    0.023    0.058    0.023    0.058
 postprocess_bse                      1  9.0    0.000    0.001    0.057    0.057
 dbcsr_sym_matrix_vector_mult       324  7.0    0.005    0.006    0.037    0.057
 create_hermitian_form_of_ABBA        1  8.0    0.000    0.000    0.056    0.056
 cp_fm_redistribute_start            45  7.9    0.043    0.044    0.053    0.055
 dbt_tas_estimate_result_nze          4 12.0    0.000    0.003    0.052    0.052
 hfx_load_balance_range               1 12.0    0.000    0.000    0.036    0.051
 dbcsr_desymmetrize_deep             68  7.7    0.002    0.002    0.046    0.049
 scf_post_calculation_gpw             1  3.0    0.000    0.000    0.049    0.049
 write_available_results              1  4.0    0.000    0.000    0.048    0.048
 write_mo_free_results                1  5.0    0.003    0.003    0.048    0.048
 mp_alltoall_i11v                   512  9.4    0.046    0.048    0.046    0.048
 mp_maxloc_dv                      1517  1.0    0.043    0.048    0.043    0.048
 multiply_cannon_loop                76 10.1    0.010    0.011    0.042    0.046
 mixing_init                          1  5.0    0.041    0.045    0.045    0.045
 vxc_of_r_new                       156  9.0    0.000    0.007    0.000    0.045
 dbt_remap                            8 10.0    0.002    0.002    0.041    0.044
 calculate_rho_atom_coeff            40  6.0    0.003    0.009    0.043    0.044
 scale_and_distribute                80  9.9    0.039    0.042    0.039    0.042
 mp_comm_split_direct                48 14.5    0.029    0.041    0.029    0.041
 xz_to_yz                            80 11.0    0.005    0.006    0.040    0.041
 Q_trace_and_add_unit_matrix        100  8.0    0.001    0.001    0.020    0.039
 dbt_tas_dbm                          8 13.5    0.000    0.000    0.037    0.037
 dbt_tas_mm_2                         8 14.5    0.000    0.000    0.037    0.037
 dbm_multiply                         8 15.5    0.035    0.036    0.035    0.036
 get_2c_integrals                     1  6.0    0.000    0.000    0.035    0.036
 make_images                        152 10.1    0.007    0.007    0.031    0.036
 pw_scale                           157  9.5    0.026    0.035    0.026    0.035
 mp_alltoall_i22                    216  9.2    0.027    0.033    0.027    0.033
 dbcsr_finalize                    1421 10.7    0.005    0.010    0.016    0.033
 sort_shells                          4  9.0    0.024    0.032    0.024    0.032
 dbcsr_add_d                        513  7.1    0.001    0.001    0.004    0.031
 dbt_distribution_new_expert         76 10.1    0.001    0.001    0.031    0.031
 dbt_tas_distribution_new           102 12.0    0.022    0.022    0.031    0.031
 dbcsr_add_anytype                  513  8.1    0.001    0.004    0.003    0.031
 print_transition_amplitudes          1 10.0    0.000    0.000    0.030    0.031
 print_transition_amplitudes_co      50 11.0    0.000    0.000    0.030    0.030
 filter_eigvec_contrib               50 12.0    0.016    0.019    0.030    0.030
 hybrid_alltoall_any                220 11.0    0.002    0.002    0.023    0.026
 get_multipoles_mo                    1 10.0    0.000    0.001    0.024    0.024
 mp2_main_free_hfx                    1  4.0    0.009    0.024    0.009    0.024
 dbt_copy                            12 10.3    0.000    0.000    0.019    0.023
 calculate_hirshfeld_normalizat       1  6.0    0.000    0.002    0.021    0.023
 dbcsr_col_vec_to_rep_row           324  8.0    0.002    0.003    0.008    0.022
 hirshfeld_integration                1  6.0    0.000    0.002    0.022    0.022
 mult_B_with_W                        1  8.0    0.000    0.000    0.022    0.022
 compute_2c_integrals                 1  7.0    0.001    0.001    0.019    0.021
 dbt_tas_reshape                      8 13.5    0.000    0.000    0.018    0.021
 dbcsr_rep_row_to_rep_col_vec       324  8.0    0.002    0.002    0.006    0.020
 mp_bcast_av                        759  1.0    0.005    0.007    0.016    0.019
 mp_irecv_dv                      13340 12.0    0.012    0.018    0.012    0.018
 dbt_reshape                          8 12.0    0.006    0.009    0.015    0.018
 pw_grid_remap                        4  8.0    0.003    0.003    0.016    0.018
 mp_bcast_iv_src                    251  7.0    0.006    0.018    0.006    0.018
 cp_fm_symm                          40  7.0    0.016    0.018    0.016    0.018
 pw_grid_assign                       4  8.0    0.014    0.016    0.016    0.016
 dbt_create_new                      40  9.5    0.001    0.001    0.016    0.016
 dbcsr_merge_all                    933 11.6    0.006    0.013    0.008    0.016
 cp_dbcsr_sm_fm_multiply              3 11.0    0.000    0.000    0.016    0.016
 make_images_sizes                  152 11.1    0.000    0.000    0.014    0.016
 mp_alltoall_i44                    152 12.1    0.014    0.016    0.014    0.016
 cube_transpose_2                    80 11.0    0.002    0.002    0.013    0.015
 dbt_tas_create_split                44 13.2    0.000    0.000    0.015    0.015
 mp_sum_iv                          245  9.7    0.013    0.015    0.013    0.015
 dbt_tas_create_split_rows_or_c      44 14.2    0.000    0.000    0.015    0.015
 mp_sum_im3                           4  9.0    0.013    0.015    0.013    0.015
 dbcsr_crop_matrix                  195 10.0    0.001    0.001    0.014    0.015
 hfx_create                           1  2.0    0.014    0.014    0.014    0.015
 mp_bcast_dv                        369  9.0    0.004    0.014    0.004    0.014
 convert_to_new_pgrid                24 13.5    0.009    0.009    0.014    0.014
 dbt_split_blocks_generic            20  8.8    0.002    0.002    0.014    0.014
 mp_cart_sub                        138  8.8    0.013    0.014    0.013    0.014
 pw_grid_distribute                   4  8.0    0.010    0.010    0.013    0.013
 dbt_nd_mp_comm                       8 11.0    0.000    0.000    0.013    0.013
 mp_alltoall_i                       39 13.9    0.012    0.013    0.012    0.013
 dbcsr_iterator_start              5471  9.2    0.008    0.011    0.009    0.013
 compute_2c_integrals_loop_lm         1  8.0    0.000    0.000    0.004    0.013
 mp2_eri_2c_integrate                 1  9.0    0.000    0.001    0.004    0.013
 dbcsr_create_new                  3227  9.6    0.009    0.009    0.012    0.012
 cube_transpose_1                    80 13.9    0.001    0.002    0.011    0.012
 mp_sum_im                        10862 13.0    0.010    0.012    0.010    0.012
 integrate_set_2c                   660 10.0    0.003    0.011    0.004    0.012
 dbcsr_copy                        1714  7.9    0.006    0.007    0.010    0.012
 multiply_cannon_metrocomm3        1616 11.2    0.003    0.003    0.008    0.012
 qs_env_update_s_mstruct              1  4.0    0.000    0.000    0.010    0.011
 mp_cart_rank                     35028  9.5    0.009    0.011    0.009    0.011
 dbcsr_copy_submatrix               195 11.0    0.002    0.002    0.010    0.011
 hfx_load_balance_redist              1 12.0    0.008    0.009    0.010    0.011
 mp_allgather_i34                    76 10.1    0.009    0.011    0.009    0.011
 rs_scatter_matrices                 40  7.0    0.000    0.001    0.010    0.011
 qs_create_task_list                  1  5.0    0.000    0.000    0.010    0.010
 generate_qs_task_list                1  6.0    0.000    0.000    0.010    0.010
 self_consistency_check              39  5.0    0.000    0.000    0.008    0.010
 cp_sm_mix                           39  6.0    0.000    0.000    0.008    0.010
 mp_max_d                            41  6.8    0.008    0.010    0.008    0.010
 mp_bcast_i                         644  2.9    0.009    0.010    0.009    0.010
 calculate_rho0_atom                120  8.9    0.010    0.010    0.010    0.010
 dbt_tas_reshape_alltoall             8 14.5    0.000    0.000    0.009    0.010
 reshape_mm_compatible                8 13.5    0.000    0.000    0.010    0.010
 xc_pw_smooth                        39 10.0    0.000    0.000    0.008    0.010
 distribute_tasks                     1  7.0    0.000    0.000    0.009    0.010
 dbm_redistribute                    24 14.2    0.009    0.009    0.009    0.009
 cholesky_decomp                      1  7.0    0.000    0.000    0.007    0.009
 multiply_cannon_metrocomm4        1496 11.2    0.004    0.005    0.008    0.009
 make_images_data                   152 11.1    0.002    0.002    0.004    0.009
 change_split                        12 14.0    0.000    0.000    0.008    0.009
 dbt_tas_communicate_buffer          16 15.5    0.001    0.003    0.006    0.009
 multiply_cannon_metrocomm2        1452 11.2    0.004    0.005    0.008    0.008
 dbt_tas_reshape_communicate_bu       8 14.5    0.000    0.000    0.006    0.008
 mp_min_d                             1  6.0    0.004    0.008    0.004    0.008
 dbcsr_iterator_stop               5471  9.2    0.005    0.007    0.006    0.008
 mp_waitall_2                        43 15.4    0.005    0.008    0.005    0.008
 load_balance_distributed             2  8.0    0.000    0.000    0.008    0.008
 dbcsr_dot                           79  8.0    0.001    0.001    0.006    0.008
 dbt_tas_merge                        8 13.5    0.003    0.005    0.005    0.008
 get_fft_scratch                    832 12.9    0.004    0.006    0.006    0.008
 create_B                             1  8.0    0.000    0.000    0.007    0.008
 get_current_loads                   12  9.0    0.000    0.000    0.005    0.007
 dbt_communicate_buffer               8 13.0    0.002    0.003    0.007    0.007
 ao_to_mo_and_store_B_mult_gw_1       4  7.0    0.000    0.000    0.004    0.007
 mp_alltoall_l                       13  9.9    0.004    0.007    0.004    0.007
 write_qs_kind_set                    1  3.0    0.000    0.007    0.000    0.007
 optimize_load_list                   2  9.0    0.000    0.000    0.004    0.007
 multiply_cannon_metrocomm1        1616 11.2    0.002    0.002    0.005    0.007
 cp_dbcsr_sm_fm_multiply_core         3 12.0    0.000    0.000    0.006    0.007
 reshape_mm_small                     8 13.5    0.002    0.002    0.007    0.007
 calculate_first_density_matrix       1  5.0    0.000    0.000    0.006    0.007
 compute_load_list                    4  9.0    0.000    0.000    0.004    0.007
 ao_to_mo_and_store_B_mult_1          4  7.0    0.000    0.000    0.003    0.007
 calculate_atomic_block_dm            1  6.0    0.001    0.001    0.006    0.007
 mp_comm_split                       45  8.9    0.006    0.006    0.006    0.006
 ao_to_mo_and_store_B_mult_bse_       4  7.0    0.000    0.000    0.004    0.006
 create_A                             1  8.0    0.001    0.001    0.006    0.006
 multiply_cannon_multrec           1616 11.2    0.002    0.006    0.003    0.006
 compute_max_radius                   1  6.0    0.006    0.006    0.006    0.006
 dbcsr_work_create                 1285 10.7    0.002    0.004    0.003    0.006
 pw_pool_create_pw                 1361  9.6    0.003    0.003    0.004    0.006
 create_integ_mat                     4  6.0    0.001    0.001    0.005    0.006
 mp_sum_partial_im                    2 10.0    0.003    0.006    0.003    0.006
 abc_contract                       124  9.0    0.002    0.005    0.002    0.005
 mp_comm_dup                         44 14.5    0.005    0.005    0.005    0.005
 dbcsr_make_images_dense             80  9.9    0.001    0.002    0.004    0.005
 evaluate_core_matrix_traces         39  6.0    0.000    0.000    0.004    0.005
 dbcsr_work_destroy_all            1285 11.6    0.002    0.004    0.003    0.005
 dbcsr_data_release               16203 10.7    0.004    0.005    0.004    0.005
 calculate_ptrace_kp                 78  7.0    0.000    0.000    0.004    0.005
 invert_mat                           1  7.0    0.000    0.000    0.005    0.005
 cp_fm_triangular_invert              1  8.0    0.005    0.005    0.005    0.005
 grep_Lcols                           1  7.0    0.000    0.000    0.005    0.005
 dbcsr_destroy                     2541  9.0    0.003    0.003    0.005    0.005
 mp_sendrecv_dm2                    261  7.3    0.003    0.005    0.003    0.005
 create_fast_row_vec_access         648  8.0    0.003    0.003    0.004    0.005
 dbcsr_data_new                    9126 11.0    0.003    0.005    0.003    0.005
 grep_Lcols_comm                      1  8.0    0.002    0.002    0.004    0.005
 create_fast_col_vec_access         648  8.0    0.003    0.003    0.004    0.004
 -------------------------------------------------------------------------------

 The number of warnings for this run is : 1
 
 -------------------------------------------------------------------------------
  **** **** ******  **  PROGRAM ENDED AT                 2025-04-11 17:56:24.241
 ***** ** ***  *** **   PROGRAM RAN ON                              i08r08c05s08
 **    ****   ******    PROGRAM RAN BY                                   di38fab
 ***** **    ** ** **   PROGRAM PROCESS ID                                209530
  **** **  *******  **  PROGRAM STOPPED IN /hppfs/scratch/04/di38fab/07_MOL_non_
                                           aug/05_MOL_non_aug/05_MOL/W4-11+ALK/b
                                           hf2/SZV/GW+BSE
