 DBCSR| CPU Multiplication driver                                           BLAS (U)
 DBCSR| Multrec recursion limit                                              512 (U)
 DBCSR| Multiplication stack size                                           1000 (D)
 DBCSR| Maximum elements for images                                    UNLIMITED (U)
 DBCSR| Multiplicative factor virtual images                                   1 (U)
 DBCSR| Use multiplication densification                                       T (D)
 DBCSR| Multiplication size stacks                                             3 (U)
 DBCSR| Use memory pool for CPU allocation                                     F (U)
 DBCSR| Number of 3D layers                                               SINGLE (U)
 DBCSR| Use MPI memory allocation                                              F (U)
 DBCSR| Use RMA algorithm                                                      F (U)
 DBCSR| Use Communication thread                                               T (U)
 DBCSR| Communication thread load                                             75 (D)
 DBCSR| MPI: My process id                                                     0
 DBCSR| MPI: Number of processes                                              96
 DBCSR| OMP: Current number of threads                                         4
 DBCSR| OMP: Max number of threads                                             4
 DBCSR| Split modifier for TAS multiplication algorithm                  1.0E+00 (U)


  **** **** ******  **  PROGRAM STARTED AT               2025-04-28 08:13:02.924
 ***** ** ***  *** **   PROGRAM STARTED ON                          i04r11c03s01
 **    ****   ******    PROGRAM STARTED BY                               di38fab
 ***** **    ** ** **   PROGRAM PROCESS ID                               1550510
  **** **  *******  **  PROGRAM STARTED IN /hppfs/scratch/04/di38fab/07_MOL_non_
                                           aug/05_MOL_non_aug/05_MOL/W4-11+ALK/b
                                           ecl2/TZVPP/TDDFT

 CP2K| version string:                 CP2K version 2025.1 (Development Version)
 CP2K| source code revision number:                             unknown revision
 CP2K| cp2kflags: omp libint fftw3 libxc parallel scalapack max_contr=4         
 CP2K| is freely available from                            https://www.cp2k.org/
 CP2K| Program compiled at                         Thu Apr 10 16:20:23 CEST 2025
 CP2K| Program compiled on                                               login01
 CP2K| Program compiled for                                        Supermuc-foss
 CP2K| Data directory path                  /hppfs/work/pn36zo/di38fab/cp2k/data
 CP2K| Input file name                                                    GW.inp

 GLOBAL| Force Environment number                                              1
 GLOBAL| Basis set file name            /hppfs/scratch/04/di38fab/04_TMD/BASIS_A
 GLOBAL| Potential file name            /hppfs/work/pn36zo/di38fab/cp2k/data/ALL
 GLOBAL| MM Potential file name                                     MM_POTENTIAL
 GLOBAL| Coordinate file name                                      __STD_INPUT__
 GLOBAL| Method name                                                        CP2K
 GLOBAL| Project name                                                       MoS2
 GLOBAL| Run type                                                         ENERGY
 GLOBAL| FFT library                                                       FFTW3
 GLOBAL| Diagonalization library                                       ScaLAPACK
 GLOBAL| DGEMM library                                                      BLAS
 GLOBAL| Orthonormality check for eigenvectors                          DISABLED
 GLOBAL| Matrix multiplication library                                 ScaLAPACK
 GLOBAL| All-to-all communication in single precision                          F
 GLOBAL| FFTs using library dependent lengths                                  F
 GLOBAL| Grid backend                                                       AUTO
 GLOBAL| Global print level                                               MEDIUM
 GLOBAL| MPI I/O enabled                                                       T
 GLOBAL| Total number of message passing processes                            96
 GLOBAL| Number of threads for this process                                    4
 GLOBAL| This output is from process                                           0
 GLOBAL| OpenMP stack size per thread (OMP_STACKSIZE)                    default
 GLOBAL| CPU model name             Intel(R) Xeon(R) Platinum 8174 CPU @ 3.10GHz

 MEMORY| system memory details [Kb]
 MEMORY|                        rank 0           min           max       average
 MEMORY| MemTotal             98436664      98436660      98436736      98436671
 MEMORY| MemFree              83795032      83751612      84219184      83887852
 MEMORY| Buffers                     0             0             0             0
 MEMORY| Cached                2396744       2396744       2425200       2409557
 MEMORY| Slab                  1247528       1149760       1265840       1236448
 MEMORY| SReclaimable           271804        256260        287584        272642
 MEMORY| MemLikelyFree        86463580      86449824      86893564      86570051


 *** Fundamental physical constants (SI units) ***

 *** Literature: B. J. Mohr and B. N. Taylor,
 ***             CODATA recommended values of the fundamental physical
 ***             constants: 2006, Web Version 5.1
 ***             http://physics.nist.gov/constants

 Speed of light in vacuum [m/s]                             2.99792458000000E+08
 Magnetic constant or permeability of vacuum [N/A**2]       1.25663706143592E-06
 Electric constant or permittivity of vacuum [F/m]          8.85418781762039E-12
 Planck constant (h) [J*s]                                  6.62606896000000E-34
 Planck constant (h-bar) [J*s]                              1.05457162825177E-34
 Elementary charge [C]                                      1.60217648700000E-19
 Electron mass [kg]                                         9.10938215000000E-31
 Electron g factor [ ]                                     -2.00231930436220E+00
 Proton mass [kg]                                           1.67262163700000E-27
 Fine-structure constant                                    7.29735253760000E-03
 Rydberg constant [1/m]                                     1.09737315685270E+07
 Avogadro constant [1/mol]                                  6.02214179000000E+23
 Boltzmann constant [J/K]                                   1.38065040000000E-23
 Atomic mass unit [kg]                                      1.66053878200000E-27
 Bohr radius [m]                                            5.29177208590000E-11

 *** Conversion factors ***

 [u] -> [a.u.]                                              1.82288848426455E+03
 [Angstrom] -> [Bohr] = [a.u.]                              1.88972613288564E+00
 [a.u.] = [Bohr] -> [Angstrom]                              5.29177208590000E-01
 [a.u.] -> [s]                                              2.41888432650478E-17
 [a.u.] -> [fs]                                             2.41888432650478E-02
 [a.u.] -> [J]                                              4.35974393937059E-18
 [a.u.] -> [N]                                              8.23872205491840E-08
 [a.u.] -> [K]                                              3.15774647902944E+05
 [a.u.] -> [kJ/mol]                                         2.62549961709828E+03
 [a.u.] -> [kcal/mol]                                       6.27509468713739E+02
 [a.u.] -> [Pa]                                             2.94210107994716E+13
 [a.u.] -> [bar]                                            2.94210107994716E+08
 [a.u.] -> [atm]                                            2.90362800883016E+08
 [a.u.] -> [eV]                                             2.72113838565563E+01
 [a.u.] -> [Hz]                                             6.57968392072181E+15
 [a.u.] -> [1/cm] (wave numbers)                            2.19474631370540E+05
 [a.u./Bohr**2] -> [1/cm]                                   5.14048714338585E+03
 

 CELL_TOP| Volume [angstrom^3]:                                     27000.000000
 CELL_TOP| Vector a [angstrom    30.000     0.000     0.000   |a| =    30.000000
 CELL_TOP| Vector b [angstrom     0.000    30.000     0.000   |b| =    30.000000
 CELL_TOP| Vector c [angstrom     0.000     0.000    30.000   |c| =    30.000000
 CELL_TOP| Angle (b,c), alpha [degree]:                                90.000000
 CELL_TOP| Angle (a,c), beta  [degree]:                                90.000000
 CELL_TOP| Angle (a,b), gamma [degree]:                                90.000000
 CELL_TOP| Numerically orthorhombic:                                         YES
 CELL_TOP| Periodicity                                                      NONE

 GENERATE|  Preliminary Number of Bonds generated:                             0
 GENERATE|  Achieved consistency in connectivity generation.

 CELL| Volume [angstrom^3]:                                         27000.000000
 CELL| Vector a [angstrom]:      30.000     0.000     0.000   |a| =    30.000000
 CELL| Vector b [angstrom]:       0.000    30.000     0.000   |b| =    30.000000
 CELL| Vector c [angstrom]:       0.000     0.000    30.000   |c| =    30.000000
 CELL| Angle (b,c), alpha [degree]:                                    90.000000
 CELL| Angle (a,c), beta  [degree]:                                    90.000000
 CELL| Angle (a,b), gamma [degree]:                                    90.000000
 CELL| Numerically orthorhombic:                                             YES
 CELL| Periodicity                                                          NONE

 CELL_REF| Volume [angstrom^3]:                                     27000.000000
 CELL_REF| Vector a [angstrom    30.000     0.000     0.000   |a| =    30.000000
 CELL_REF| Vector b [angstrom     0.000    30.000     0.000   |b| =    30.000000
 CELL_REF| Vector c [angstrom     0.000     0.000    30.000   |c| =    30.000000
 CELL_REF| Angle (b,c), alpha [degree]:                                90.000000
 CELL_REF| Angle (a,c), beta  [degree]:                                90.000000
 CELL_REF| Angle (a,b), gamma [degree]:                                90.000000
 CELL_REF| Numerically orthorhombic:                                         YES
 CELL_REF| Periodicity                                                      NONE

 *******************************************************************************
 *******************************************************************************
 **                                                                           **
 **     #####                         ##              ##                      **
 **    ##   ##            ##          ##              ##                      **
 **   ##     ##                       ##            ######                    **
 **   ##     ##  ##   ##  ##   #####  ##  ##   ####   ##    #####    #####    **
 **   ##     ##  ##   ##  ##  ##      ## ##   ##      ##   ##   ##  ##   ##   **
 **   ##  ## ##  ##   ##  ##  ##      ####     ###    ##   ######   ######    **
 **    ##  ###   ##   ##  ##  ##      ## ##      ##   ##   ##       ##        **
 **     #######   #####   ##   #####  ##  ##  ####    ##    #####   ##        **
 **           ##                                                    ##        **
 **                                                                           **
 **                                                ... make the atoms dance   **
 **                                                                           **
 **            Copyright (C) by CP2K developers group (2000-2025)             **
 **                      J. Chem. Phys. 152, 194103 (2020)                    **
 **                                                                           **
 *******************************************************************************

 DFT| Spin restricted Kohn-Sham (RKS) calculation                            RKS
 DFT| Multiplicity                                                             1
 DFT| Number of spin states                                                    1
 DFT| Charge                                                                   0
 DFT| Self-interaction correction (SIC)                                       NO
 DFT| Cutoffs: density                                              1.000000E-10
 DFT|          gradient                                             1.000000E-10
 DFT|          tau                                                  1.000000E-10
 DFT|          cutoff_smoothing_range                               0.000000E+00
 DFT| XC density smoothing                                                  NONE
 DFT| XC derivatives                                                          PW

 FUNCTIONAL| PBE:
 FUNCTIONAL| J.P.Perdew, K.Burke, M.Ernzerhof, Phys. Rev. Letter, vol. 77, n 18,
 FUNCTIONAL|  pp. 3865-3868, (1996)sx=0.750sc=1.000{spin unpolarized}           


 QS| Method:                                                                GAPW
 QS| Density plane wave grid type                        NON-SPHERICAL FULLSPACE
 QS| Number of grid levels:                                                    4
 QS| Density cutoff [a.u.]:                                                250.0
 QS| Multi grid cutoff [a.u.]: 1) grid level                               250.0
 QS|                           2) grid level                                83.3
 QS|                           3) grid level                                27.8
 QS|                           4) grid level                                 9.3
 QS| Grid level progression factor:                                          3.0
 QS| Relative density cutoff [a.u.]:                                        50.0
 QS| Interaction thresholds: eps_pgf_orb:                                1.0E-12
 QS|                         eps_filter_matrix:                          0.0E+00
 QS|                         eps_core_charge:                            1.0E-14
 QS|                         eps_rho_gspace:                             1.0E-12
 QS|                         eps_rho_rspace:                             1.0E-12
 QS|                         eps_gvg_rspace:                             1.0E-06
 QS|                         eps_ppl:                                    1.0E-02
 QS|                         eps_ppnl:                                   1.0E-08
 QS| GAPW|      One center basis from orbital basis primitives
 QS| GAPW|                   eps_fit:                                    1.0E-04
 QS| GAPW|                   eps_iso:                                    1.0E-12
 QS| GAPW|                   eps_svd:                                    1.0E-08
 QS| GAPW|                   eps_cpc:                                    1.0E-12
 QS| GAPW|   atom-r-grid: quadrature:                                     GC_LOG
 QS| GAPW|      atom-s-grid:  max l :                                          6
 QS| GAPW|      max_l_rho0 :                                                   2


 ATOMIC KIND INFORMATION

  1. Atomic kind: BE                                    Number of atoms:       1

     Orbital Basis Set                                       TZVPP-MOLOPT-GGA-ae

       Number of orbital shell sets:                                           2
       Number of orbital shells:                                               9
       Number of primitive Cartesian functions:                               11
       Number of Cartesian basis functions:                                   20
       Number of spherical basis functions:                                   19
       Norm type:                                                              2

       Normalised Cartesian orbitals:

                        Set   Shell   Orbital            Exponent    Coefficient

                          1       1    1s                3.215821       0.982602
                                                         1.327711       0.423218
                                                         0.504171      -0.078895
                                                         0.180196       0.041890
                                                         0.058229       0.005118

                          1       2    2s                3.215821      -0.045875
                                                         1.327711       0.060205
                                                         0.504171       0.226108
                                                         0.180196       0.062546
                                                         0.058229       0.018505

                          1       3    3s                3.215821      -0.370906
                                                         1.327711      -0.428190
                                                         0.504171      -0.275236
                                                         0.180196       0.214838
                                                         0.058229       0.009167

                          1       4    4s                3.215821      -0.196440
                                                         1.327711       0.000698
                                                         0.504171      -0.140895
                                                         0.180196      -0.068259
                                                         0.058229       0.108747

                          1       5    2px               3.215821      -0.301791
                                                         1.327711      -0.118706
                                                         0.504171      -0.360285
                                                         0.180196      -0.068022
                                                         0.058229      -0.000939
                          1       5    2py               3.215821      -0.301791
                                                         1.327711      -0.118706
                                                         0.504171      -0.360285
                                                         0.180196      -0.068022
                                                         0.058229      -0.000939
                          1       5    2pz               3.215821      -0.301791
                                                         1.327711      -0.118706
                                                         0.504171      -0.360285
                                                         0.180196      -0.068022
                                                         0.058229      -0.000939

                          1       6    3px               3.215821      -5.242133
                                                         1.327711       0.238335
                                                         0.504171       0.000511
                                                         0.180196       0.008254
                                                         0.058229       0.025819
                          1       6    3py               3.215821      -5.242133
                                                         1.327711       0.238335
                                                         0.504171       0.000511
                                                         0.180196       0.008254
                                                         0.058229       0.025819
                          1       6    3pz               3.215821      -5.242133
                                                         1.327711       0.238335
                                                         0.504171       0.000511
                                                         0.180196       0.008254
                                                         0.058229       0.025819

                          1       7    4px               3.215821       2.676427
                                                         1.327711      -0.210509
                                                         0.504171      -0.330293
                                                         0.180196       0.122044
                                                         0.058229       0.022471
                          1       7    4py               3.215821       2.676427
                                                         1.327711      -0.210509
                                                         0.504171      -0.330293
                                                         0.180196       0.122044
                                                         0.058229       0.022471
                          1       7    4pz               3.215821       2.676427
                                                         1.327711      -0.210509
                                                         0.504171      -0.330293
                                                         0.180196       0.122044
                                                         0.058229       0.022471

                          1       8    3dx2              3.215821       0.461167
                                                         1.327711      -0.298030
                                                         0.504171       0.372376
                                                         0.180196       0.030513
                                                         0.058229       0.000704
                          1       8    3dxy              3.215821       0.798765
                                                         1.327711      -0.516204
                                                         0.504171       0.644973
                                                         0.180196       0.052849
                                                         0.058229       0.001220
                          1       8    3dxz              3.215821       0.798765
                                                         1.327711      -0.516204
                                                         0.504171       0.644973
                                                         0.180196       0.052849
                                                         0.058229       0.001220
                          1       8    3dy2              3.215821       0.461167
                                                         1.327711      -0.298030
                                                         0.504171       0.372376
                                                         0.180196       0.030513
                                                         0.058229       0.000704
                          1       8    3dyz              3.215821       0.798765
                                                         1.327711      -0.516204
                                                         0.504171       0.644973
                                                         0.180196       0.052849
                                                         0.058229       0.001220
                          1       8    3dz2              3.215821       0.461167
                                                         1.327711      -0.298030
                                                         0.504171       0.372376
                                                         0.180196       0.030513
                                                         0.058229       0.000704

                          2       1    1s             4700.379494       0.386823
                                                       704.895908       0.651139
                                                       160.564268       1.161919
                                                        45.293874       1.731229
                                                        14.656253       2.190022
                                                         6.001848       1.385341

     RI Auxiliary Basis Set                                    aug-cc-pV5Z-RIFIT

       Number of orbital shell sets:                                          46
       Number of orbital shells:                                              46
       Number of primitive Cartesian functions:                               46
       Number of Cartesian basis functions:                                  371
       Number of spherical basis functions:                                  242
       Norm type:                                                              2

       Normalised Cartesian orbitals:

                        Set   Shell   Orbital            Exponent    Coefficient

                          1       1    1s                0.044290       0.068808

                          2       1    1px               0.051574       0.035033
                          2       1    1py               0.051574       0.035033
                          2       1    1pz               0.051574       0.035033

                          3       1    1px               0.078547       0.059272
                          3       1    1py               0.078547       0.059272
                          3       1    1pz               0.078547       0.059272

                          4       1    1dx2              0.080920       0.020207
                          4       1    1dxy              0.080920       0.035000
                          4       1    1dxz              0.080920       0.035000
                          4       1    1dy2              0.080920       0.020207
                          4       1    1dyz              0.080920       0.035000
                          4       1    1dz2              0.080920       0.020207

                          5       1    1s                0.090836       0.117925

                          6       1    1fx3              0.128523       0.014560
                          6       1    1fx2y             0.128523       0.032557
                          6       1    1fx2z             0.128523       0.032557
                          6       1    1fxy2             0.128523       0.032557
                          6       1    1fxyz             0.128523       0.056391
                          6       1    1fxz2             0.128523       0.032557
                          6       1    1fy3              0.128523       0.014560
                          6       1    1fy2z             0.128523       0.032557
                          6       1    1fyz2             0.128523       0.032557
                          6       1    1fz3              0.128523       0.014560

                          7       1    1dx2              0.136955       0.050748
                          7       1    1dxy              0.136955       0.087898
                          7       1    1dxz              0.136955       0.087898
                          7       1    1dy2              0.136955       0.050748
                          7       1    1dyz              0.136955       0.087898
                          7       1    1dz2              0.136955       0.050748

                          8       1    1px               0.148487       0.131386
                          8       1    1py               0.148487       0.131386
                          8       1    1pz               0.148487       0.131386

                          9       1    1s                0.168188       0.187179

                         10       1    1gx4              0.190993       0.011728
                         10       1    1gx3y             0.190993       0.031030
                         10       1    1gx3z             0.190993       0.031030
                         10       1    1gx2y2            0.190993       0.040060
                         10       1    1gx2yz            0.190993       0.069385
                         10       1    1gx2z2            0.190993       0.040060
                         10       1    1gxy3             0.190993       0.031030
                         10       1    1gxy2z            0.190993       0.069385
                         10       1    1gxyz2            0.190993       0.069385
                         10       1    1gxz3             0.190993       0.031030
                         10       1    1gy4              0.190993       0.011728
                         10       1    1gy3z             0.190993       0.031030
                         10       1    1gy2z2            0.190993       0.040060
                         10       1    1gyz3             0.190993       0.031030
                         10       1    1gz4              0.190993       0.011728

                         11       1    1fx3              0.205294       0.041764
                         11       1    1fx2y             0.205294       0.093387
                         11       1    1fx2z             0.205294       0.093387
                         11       1    1fxy2             0.205294       0.093387
                         11       1    1fxyz             0.205294       0.161751
                         11       1    1fxz2             0.205294       0.093387
                         11       1    1fy3              0.205294       0.041764
                         11       1    1fy2z             0.205294       0.093387
                         11       1    1fyz2             0.205294       0.093387
                         11       1    1fz3              0.205294       0.041764

                         12       1    1dx2              0.238389       0.133863
                         12       1    1dxy              0.238389       0.231857
                         12       1    1dxz              0.238389       0.231857
                         12       1    1dy2              0.238389       0.133863
                         12       1    1dyz              0.238389       0.231857
                         12       1    1dz2              0.238389       0.133863

                         13       1    1px               0.289372       0.302525
                         13       1    1py               0.289372       0.302525
                         13       1    1pz               0.289372       0.302525

                         14       1    1s                0.304521       0.292162

                         15       1    1fx3              0.330842       0.122208
                         15       1    1fx2y             0.330842       0.273266
                         15       1    1fx2z             0.330842       0.273266
                         15       1    1fxy2             0.330842       0.273266
                         15       1    1fxyz             0.330842       0.473311
                         15       1    1fxz2             0.330842       0.273266
                         15       1    1fy3              0.330842       0.122208
                         15       1    1fy2z             0.330842       0.273266
                         15       1    1fyz2             0.330842       0.273266
                         15       1    1fz3              0.330842       0.122208

                         16       1    1hx5              0.344441       0.023226
                         16       1    1hx4y             0.344441       0.069677
                         16       1    1hx4z             0.344441       0.069677
                         16       1    1hx3y2            0.344441       0.106433
                         16       1    1hx3yz            0.344441       0.184348
                         16       1    1hx3z2            0.344441       0.106433
                         16       1    1hx2y3            0.344441       0.106433
                         16       1    1hx2y2z           0.344441       0.237992
                         16       1    1hx2yz2           0.344441       0.237992
                         16       1    1hx2z3            0.344441       0.106433
                         16       1    1hxy4             0.344441       0.069677
                         16       1    1hxy3z            0.344441       0.184348
                         16       1    1hxy2z2           0.344441       0.237992
                         16       1    1hxyz3            0.344441       0.184348
                         16       1    1hxz4             0.344441       0.069677
                         16       1    1hy5              0.344441       0.023226
                         16       1    1hy4z             0.344441       0.069677
                         16       1    1hy3z2            0.344441       0.106433
                         16       1    1hy2z3            0.344441       0.106433
                         16       1    1hyz4             0.344441       0.069677
                         16       1    1hz5              0.344441       0.023226

                         17       1    1gx4              0.380351       0.077973
                         17       1    1gx3y             0.380351       0.206297
                         17       1    1gx3z             0.380351       0.206297
                         17       1    1gx2y2            0.380351       0.266328
                         17       1    1gx2yz            0.380351       0.461293
                         17       1    1gx2z2            0.380351       0.266328
                         17       1    1gxy3             0.380351       0.206297
                         17       1    1gxy2z            0.380351       0.461293
                         17       1    1gxyz2            0.380351       0.461293
                         17       1    1gxz3             0.380351       0.206297
                         17       1    1gy4              0.380351       0.077973
                         17       1    1gy3z             0.380351       0.206297
                         17       1    1gy2z2            0.380351       0.266328
                         17       1    1gyz3             0.380351       0.206297
                         17       1    1gz4              0.380351       0.077973

                         18       1    1ix6              0.424356       0.017975
                         18       1    1ix5y             0.424356       0.059616
                         18       1    1ix5z             0.424356       0.059616
                         18       1    1ix4y2            0.424356       0.103258
                         18       1    1ix4yz            0.424356       0.178848
                         18       1    1ix4z2            0.424356       0.103258
                         18       1    1ix3y3            0.424356       0.122176
                         18       1    1ix3y2z           0.424356       0.273195
                         18       1    1ix3yz2           0.424356       0.273195
                         18       1    1ix3z3            0.424356       0.122176
                         18       1    1ix2y4            0.424356       0.103258
                         18       1    1ix2y3z           0.424356       0.273195
                         18       1    1ix2y2z2          0.424356       0.352693
                         18       1    1ix2yz3           0.424356       0.273195
                         18       1    1ix2z4            0.424356       0.103258
                         18       1    1ixy5             0.424356       0.059616
                         18       1    1ixy4z            0.424356       0.178848
                         18       1    1ixy3z2           0.424356       0.273195
                         18       1    1ixy2z3           0.424356       0.273195
                         18       1    1ixyz4            0.424356       0.178848
                         18       1    1ixz5             0.424356       0.059616
                         18       1    1iy6              0.424356       0.017975
                         18       1    1iy5z             0.424356       0.059616
                         18       1    1iy4z2            0.424356       0.103258
                         18       1    1iy3z3            0.424356       0.122176
                         18       1    1iy2z4            0.424356       0.103258
                         18       1    1iyz5             0.424356       0.059616
                         18       1    1iz6              0.424356       0.017975

                         19       1    1dx2              0.453927       0.413176
                         19       1    1dxy              0.453927       0.715642
                         19       1    1dxz              0.453927       0.715642
                         19       1    1dy2              0.453927       0.413176
                         19       1    1dyz              0.453927       0.715642
                         19       1    1dz2              0.453927       0.413176

                         20       1    1s                0.494373       0.420195

                         21       1    1fx3              0.497082       0.305434
                         21       1    1fx2y             0.497082       0.682971
                         21       1    1fx2z             0.497082       0.682971
                         21       1    1fxy2             0.497082       0.682971
                         21       1    1fxyz             0.497082       1.182941
                         21       1    1fxz2             0.497082       0.682971
                         21       1    1fy3              0.497082       0.305434
                         21       1    1fy2z             0.497082       0.682971
                         21       1    1fyz2             0.497082       0.682971
                         21       1    1fz3              0.497082       0.305434

                         22       1    1hx5              0.511708       0.084075
                         22       1    1hx4y             0.511708       0.252225
                         22       1    1hx4z             0.511708       0.252225
                         22       1    1hx3y2            0.511708       0.385280
                         22       1    1hx3yz            0.511708       0.667324
                         22       1    1hx3z2            0.511708       0.385280
                         22       1    1hx2y3            0.511708       0.385280
                         22       1    1hx2y2z           0.511708       0.861511
                         22       1    1hx2yz2           0.511708       0.861511
                         22       1    1hx2z3            0.511708       0.385280
                         22       1    1hxy4             0.511708       0.252225
                         22       1    1hxy3z            0.511708       0.667324
                         22       1    1hxy2z2           0.511708       0.861511
                         22       1    1hxyz3            0.511708       0.667324
                         22       1    1hxz4             0.511708       0.252225
                         22       1    1hy5              0.511708       0.084075
                         22       1    1hy4z             0.511708       0.252225
                         22       1    1hy3z2            0.511708       0.385280
                         22       1    1hy2z3            0.511708       0.385280
                         22       1    1hyz4             0.511708       0.252225
                         22       1    1hz5              0.511708       0.084075

                         23       1    1gx4              0.515330       0.179751
                         23       1    1gx3y             0.515330       0.475575
                         23       1    1gx3z             0.515330       0.475575
                         23       1    1gx2y2            0.515330       0.613965
                         23       1    1gx2yz            0.515330       1.063419
                         23       1    1gx2z2            0.515330       0.613965
                         23       1    1gxy3             0.515330       0.475575
                         23       1    1gxy2z            0.515330       1.063419
                         23       1    1gxyz2            0.515330       1.063419
                         23       1    1gxz3             0.515330       0.475575
                         23       1    1gy4              0.515330       0.179751
                         23       1    1gy3z             0.515330       0.475575
                         23       1    1gy2z2            0.515330       0.613965
                         23       1    1gyz3             0.515330       0.475575
                         23       1    1gz4              0.515330       0.179751

                         24       1    1px               0.594885       0.744700
                         24       1    1py               0.594885       0.744700
                         24       1    1pz               0.594885       0.744700

                         25       1    1hx5              0.672211       0.204050
                         25       1    1hx4y             0.672211       0.612151
                         25       1    1hx4z             0.672211       0.612151
                         25       1    1hx3y2            0.672211       0.935076
                         25       1    1hx3yz            0.672211       1.619600
                         25       1    1hx3z2            0.672211       0.935076
                         25       1    1hx2y3            0.672211       0.935076
                         25       1    1hx2y2z           0.672211       2.090894
                         25       1    1hx2yz2           0.672211       2.090894
                         25       1    1hx2z3            0.672211       0.935076
                         25       1    1hxy4             0.672211       0.612151
                         25       1    1hxy3z            0.672211       1.619600
                         25       1    1hxy2z2           0.672211       2.090894
                         25       1    1hxyz3            0.672211       1.619600
                         25       1    1hxz4             0.672211       0.612151
                         25       1    1hy5              0.672211       0.204050
                         25       1    1hy4z             0.672211       0.612151
                         25       1    1hy3z2            0.672211       0.935076
                         25       1    1hy2z3            0.672211       0.935076
                         25       1    1hyz4             0.672211       0.612151
                         25       1    1hz5              0.672211       0.204050

                         26       1    1ix6              0.672211       0.100884
                         26       1    1ix5y             0.672211       0.334596
                         26       1    1ix5z             0.672211       0.334596
                         26       1    1ix4y2            0.672211       0.579537
                         26       1    1ix4yz            0.672211       1.003787
                         26       1    1ix4z2            0.672211       0.579537
                         26       1    1ix3y3            0.672211       0.685717
                         26       1    1ix3y2z           0.672211       1.533310
                         26       1    1ix3yz2           0.672211       1.533310
                         26       1    1ix3z3            0.672211       0.685717
                         26       1    1ix2y4            0.672211       0.579537
                         26       1    1ix2y3z           0.672211       1.533310
                         26       1    1ix2y2z2          0.672211       1.979494
                         26       1    1ix2yz3           0.672211       1.533310
                         26       1    1ix2z4            0.672211       0.579537
                         26       1    1ixy5             0.672211       0.334596
                         26       1    1ixy4z            0.672211       1.003787
                         26       1    1ixy3z2           0.672211       1.533310
                         26       1    1ixy2z3           0.672211       1.533310
                         26       1    1ixyz4            0.672211       1.003787
                         26       1    1ixz5             0.672211       0.334596
                         26       1    1iy6              0.672211       0.100884
                         26       1    1iy5z             0.672211       0.334596
                         26       1    1iy4z2            0.672211       0.579537
                         26       1    1iy3z3            0.672211       0.685717
                         26       1    1iy2z4            0.672211       0.579537
                         26       1    1iyz5             0.672211       0.334596
                         26       1    1iz6              0.672211       0.100884

                         27       1    1gx4              0.727039       0.463147
                         27       1    1gx3y             0.727039       1.225373
                         27       1    1gx3z             0.727039       1.225373
                         27       1    1gx2y2            0.727039       1.581949
                         27       1    1gx2yz            0.727039       2.740016
                         27       1    1gx2z2            0.727039       1.581949
                         27       1    1gxy3             0.727039       1.225373
                         27       1    1gxy2z            0.727039       2.740016
                         27       1    1gxyz2            0.727039       2.740016
                         27       1    1gxz3             0.727039       1.225373
                         27       1    1gy4              0.727039       0.463147
                         27       1    1gy3z             0.727039       1.225373
                         27       1    1gy2z2            0.727039       1.581949
                         27       1    1gyz3             0.727039       1.225373
                         27       1    1gz4              0.727039       0.463147

                         28       1    1fx3              0.874992       1.090093
                         28       1    1fx2y             0.874992       2.437523
                         28       1    1fx2z             0.874992       2.437523
                         28       1    1fxy2             0.874992       2.437523
                         28       1    1fxyz             0.874992       4.221913
                         28       1    1fxz2             0.874992       2.437523
                         28       1    1fy3              0.874992       1.090093
                         28       1    1fy2z             0.874992       2.437523
                         28       1    1fyz2             0.874992       2.437523
                         28       1    1fz3              0.874992       1.090093

                         29       1    1dx2              0.897386       1.361831
                         29       1    1dxy              0.897386       2.358760
                         29       1    1dxz              0.897386       2.358760
                         29       1    1dy2              0.897386       1.361831
                         29       1    1dyz              0.897386       2.358760
                         29       1    1dz2              0.897386       1.361831

                         30       1    1s                0.941824       0.681377

                         31       1    1px               1.274640       1.930521
                         31       1    1py               1.274640       1.930521
                         31       1    1pz               1.274640       1.930521

                         32       1    1hx5              1.504620       2.798861
                         32       1    1hx4y             1.504620       8.396584
                         32       1    1hx4z             1.504620       8.396584
                         32       1    1hx3y2            1.504620      12.825993
                         32       1    1hx3yz            1.504620      22.215272
                         32       1    1hx3z2            1.504620      12.825993
                         32       1    1hx2y3            1.504620      12.825993
                         32       1    1hx2y2z           1.504620      28.679793
                         32       1    1hx2yz2           1.504620      28.679793
                         32       1    1hx2z3            1.504620      12.825993
                         32       1    1hxy4             1.504620       8.396584
                         32       1    1hxy3z            1.504620      22.215272
                         32       1    1hxy2z2           1.504620      28.679793
                         32       1    1hxyz3            1.504620      22.215272
                         32       1    1hxz4             1.504620       8.396584
                         32       1    1hy5              1.504620       2.798861
                         32       1    1hy4z             1.504620       8.396584
                         32       1    1hy3z2            1.504620      12.825993
                         32       1    1hy2z3            1.504620      12.825993
                         32       1    1hyz4             1.504620       8.396584
                         32       1    1hz5              1.504620       2.798861

                         33       1    1dx2              1.733830       4.311922
                         33       1    1dxy              1.733830       7.468467
                         33       1    1dxz              1.733830       7.468467
                         33       1    1dy2              1.733830       4.311922
                         33       1    1dyz              1.733830       7.468467
                         33       1    1dz2              1.733830       4.311922

                         34       1    1fx3              1.761390       5.261740
                         34       1    1fx2y             1.761390      11.765608
                         34       1    1fx2z             1.761390      11.765608
                         34       1    1fxy2             1.761390      11.765608
                         34       1    1fxyz             1.761390      20.378631
                         34       1    1fxz2             1.761390      11.765608
                         34       1    1fy3              1.761390       5.261740
                         34       1    1fy2z             1.761390      11.765608
                         34       1    1fyz2             1.761390      11.765608
                         34       1    1fz3              1.761390       5.261740

                         35       1    1s                2.048250       1.220246

                         36       1    1gx4              2.356140      11.748663
                         36       1    1gx3y             2.356140      31.084039
                         36       1    1gx3z             2.356140      31.084039
                         36       1    1gx2y2            2.356140      40.129322
                         36       1    1gx2yz            2.356140      69.506025
                         36       1    1gx2z2            2.356140      40.129322
                         36       1    1gxy3             2.356140      31.084039
                         36       1    1gxy2z            2.356140      69.506025
                         36       1    1gxyz2            2.356140      69.506025
                         36       1    1gxz3             2.356140      31.084039
                         36       1    1gy4              2.356140      11.748663
                         36       1    1gy3z             2.356140      31.084039
                         36       1    1gy2z2            2.356140      40.129322
                         36       1    1gyz3             2.356140      31.084039
                         36       1    1gz4              2.356140      11.748663

                         37       1    1px               3.244700       6.207379
                         37       1    1py               3.244700       6.207379
                         37       1    1pz               3.244700       6.207379

                         38       1    1dx2              3.818020      17.164308
                         38       1    1dxy              3.818020      29.729454
                         38       1    1dxz              3.818020      29.729454
                         38       1    1dy2              3.818020      17.164308
                         38       1    1dyz              3.818020      29.729454
                         38       1    1dz2              3.818020      17.164308

                         39       1    1fx3              4.091040      35.041310
                         39       1    1fx2y             4.091040      78.354751
                         39       1    1fx2z             4.091040      78.354751
                         39       1    1fxy2             4.091040      78.354751
                         39       1    1fxyz             4.091040     135.714410
                         39       1    1fxz2             4.091040      78.354751
                         39       1    1fy3              4.091040      35.041310
                         39       1    1fy2z             4.091040      78.354751
                         39       1    1fyz2             4.091040      78.354751
                         39       1    1fz3              4.091040      35.041310

                         40       1    1s                5.187230       2.449693

                         41       1    1px               8.190870      19.751616
                         41       1    1py               8.190870      19.751616
                         41       1    1pz               8.190870      19.751616

                         42       1    1dx2              9.776100      88.960931
                         42       1    1dxy              9.776100     154.084852
                         42       1    1dxz              9.776100     154.084852
                         42       1    1dy2              9.776100      88.960931
                         42       1    1dyz              9.776100     154.084852
                         42       1    1dz2              9.776100      88.960931

                         43       1    1s                9.865750       3.967415

                         44       1    1px              29.226300      96.862882
                         44       1    1py              29.226300      96.862882
                         44       1    1pz              29.226300      96.862882

                         45       1    1s               33.616500       9.950032

                         46       1    1s              155.476000      31.380338

       Atomic covalent radius [Angstrom]:                                  0.900

       Atomic van der Waals radius [Angstrom]:                             1.530

     The atoms of this atomic kind are PAW atoms (GAPW):
       Hard Gaussian function radius:                                      1.512
       Rho0 radius:                                                        1.512
       Maximum GTO radius used for PAW projector construction:            24.566

     GAPW Soft Basis Set                                TZVPP-MOLOPT-GGA-ae_soft

       Number of orbital shell sets:                                           2
       Number of orbital shells:                                               9
       Number of primitive Cartesian functions:                                5
       Number of Cartesian basis functions:                                   20
       Number of spherical basis functions:                                   19
       Norm type:                                                              2

       Normalised Cartesian orbitals:

                        Set   Shell   Orbital            Exponent    Coefficient

                          1       1    1s                3.215821       0.982602
                                                         1.327711       0.423218
                                                         0.504171      -0.078895
                                                         0.180196       0.041890
                                                         0.058229       0.005118

                          1       2    2s                3.215821      -0.045875
                                                         1.327711       0.060205
                                                         0.504171       0.226108
                                                         0.180196       0.062546
                                                         0.058229       0.018505

                          1       3    3s                3.215821      -0.370906
                                                         1.327711      -0.428190
                                                         0.504171      -0.275236
                                                         0.180196       0.214838
                                                         0.058229       0.009167

                          1       4    4s                3.215821      -0.196440
                                                         1.327711       0.000698
                                                         0.504171      -0.140895
                                                         0.180196      -0.068259
                                                         0.058229       0.108747

                          1       5    2px               3.215821      -0.301791
                                                         1.327711      -0.118706
                                                         0.504171      -0.360285
                                                         0.180196      -0.068022
                                                         0.058229      -0.000939
                          1       5    2py               3.215821      -0.301791
                                                         1.327711      -0.118706
                                                         0.504171      -0.360285
                                                         0.180196      -0.068022
                                                         0.058229      -0.000939
                          1       5    2pz               3.215821      -0.301791
                                                         1.327711      -0.118706
                                                         0.504171      -0.360285
                                                         0.180196      -0.068022
                                                         0.058229      -0.000939

                          1       6    3px               3.215821      -5.242133
                                                         1.327711       0.238335
                                                         0.504171       0.000511
                                                         0.180196       0.008254
                                                         0.058229       0.025819
                          1       6    3py               3.215821      -5.242133
                                                         1.327711       0.238335
                                                         0.504171       0.000511
                                                         0.180196       0.008254
                                                         0.058229       0.025819
                          1       6    3pz               3.215821      -5.242133
                                                         1.327711       0.238335
                                                         0.504171       0.000511
                                                         0.180196       0.008254
                                                         0.058229       0.025819

                          1       7    4px               3.215821       2.676427
                                                         1.327711      -0.210509
                                                         0.504171      -0.330293
                                                         0.180196       0.122044
                                                         0.058229       0.022471
                          1       7    4py               3.215821       2.676427
                                                         1.327711      -0.210509
                                                         0.504171      -0.330293
                                                         0.180196       0.122044
                                                         0.058229       0.022471
                          1       7    4pz               3.215821       2.676427
                                                         1.327711      -0.210509
                                                         0.504171      -0.330293
                                                         0.180196       0.122044
                                                         0.058229       0.022471

                          1       8    3dx2              3.215821       0.461167
                                                         1.327711      -0.298030
                                                         0.504171       0.372376
                                                         0.180196       0.030513
                                                         0.058229       0.000704
                          1       8    3dxy              3.215821       0.798765
                                                         1.327711      -0.516204
                                                         0.504171       0.644973
                                                         0.180196       0.052849
                                                         0.058229       0.001220
                          1       8    3dxz              3.215821       0.798765
                                                         1.327711      -0.516204
                                                         0.504171       0.644973
                                                         0.180196       0.052849
                                                         0.058229       0.001220
                          1       8    3dy2              3.215821       0.461167
                                                         1.327711      -0.298030
                                                         0.504171       0.372376
                                                         0.180196       0.030513
                                                         0.058229       0.000704
                          1       8    3dyz              3.215821       0.798765
                                                         1.327711      -0.516204
                                                         0.504171       0.644973
                                                         0.180196       0.052849
                                                         0.058229       0.001220
                          1       8    3dz2              3.215821       0.461167
                                                         1.327711      -0.298030
                                                         0.504171       0.372376
                                                         0.180196       0.030513
                                                         0.058229       0.000704

                          2       1    1s         

     AE Potential information for                                            ALL

       Description:                                       All-electron potential
                                          Krack, Parrinello, PCCP 2, 2105 (2000)

       Gaussian exponent of the core charge distribution:               4.733728
       Electronic configuration (s p d ...):                           4   0   0

  2. Atomic kind: CL                                    Number of atoms:       2

     Orbital Basis Set                                       TZVPP-MOLOPT-GGA-ae

       Number of orbital shell sets:                                           3
       Number of orbital shells:                                              14
       Number of primitive Cartesian functions:                               17
       Number of Cartesian basis functions:                                   48
       Number of spherical basis functions:                                   42
       Norm type:                                                              2

       Normalised Cartesian orbitals:

                        Set   Shell   Orbital            Exponent    Coefficient

                          1       1    1s                7.922916      -0.101257
                                                         3.213593       1.388261
                                                         1.261473       0.174217
                                                         0.412964      -0.004531
                                                         0.130056       0.017913

                          1       2    2s                7.922916      -0.061102
                                                         3.213593      -0.039315
                                                         1.261473       0.078721
                                                         0.412964       0.321131
                                                         0.130056       0.013091

                          1       3    3s                7.922916      -0.023682
                                                         3.213593      -0.250639
                                                         1.261473      -0.050311
                                                         0.412964      -0.038904
                                                         0.130056       0.172328

                          1       4    2px               7.922916       2.235836
                                                         3.213593       5.865137
                                                         1.261473      -0.014735
                                                         0.412964      -0.101403
                                                         0.130056       0.004954
                          1       4    2py               7.922916       2.235836
                                                         3.213593       5.865137
                                                         1.261473      -0.014735
                                                         0.412964      -0.101403
                                                         0.130056       0.004954
                          1       4    2pz               7.922916       2.235836
                                                         3.213593       5.865137
                                                         1.261473      -0.014735
                                                         0.412964      -0.101403
                                                         0.130056       0.004954

                          1       5    3px               7.922916       1.915434
                                                         3.213593       0.016267
                                                         1.261473       1.807293
                                                         0.412964       0.011261
                                                         0.130056      -0.005014
                          1       5    3py               7.922916       1.915434
                                                         3.213593       0.016267
                                                         1.261473       1.807293
                                                         0.412964       0.011261
                                                         0.130056      -0.005014
                          1       5    3pz               7.922916       1.915434
                                                         3.213593       0.016267
                                                         1.261473       1.807293
                                                         0.412964       0.011261
                                                         0.130056      -0.005014

                          1       6    4px               7.922916      -0.244452
                                                         3.213593       1.150207
                                                         1.261473      -0.028120
                                                         0.412964       0.402822
                                                         0.130056       0.013770
                          1       6    4py               7.922916      -0.244452
                                                         3.213593       1.150207
                                                         1.261473      -0.028120
                                                         0.412964       0.402822
                                                         0.130056       0.013770
                          1       6    4pz               7.922916      -0.244452
                                                         3.213593       1.150207
                                                         1.261473      -0.028120
                                                         0.412964       0.402822
                                                         0.130056       0.013770

                          1       7    5px               7.922916       0.380326
                                                         3.213593      -0.509998
                                                         1.261473       0.100748
                                                         0.412964      -0.064707
                                                         0.130056       0.120331
                          1       7    5py               7.922916       0.380326
                                                         3.213593      -0.509998
                                                         1.261473       0.100748
                                                         0.412964      -0.064707
                                                         0.130056       0.120331
                          1       7    5pz               7.922916       0.380326
                                                         3.213593      -0.509998
                                                         1.261473       0.100748
                                                         0.412964      -0.064707
                                                         0.130056       0.120331

                          1       8    3dx2              7.922916      -4.440571
                                                         3.213593      14.264092
                                                         1.261473      -0.246797
                                                         0.412964      -0.014480
                                                         0.130056      -0.001027
                          1       8    3dxy              7.922916      -7.691295
                                                         3.213593      24.706133
                                                         1.261473      -0.427465
                                                         0.412964      -0.025081
                                                         0.130056      -0.001778
                          1       8    3dxz              7.922916      -7.691295
                                                         3.213593      24.706133
                                                         1.261473      -0.427465
                                                         0.412964      -0.025081
                                                         0.130056      -0.001778
                          1       8    3dy2              7.922916      -4.440571
                                                         3.213593      14.264092
                                                         1.261473      -0.246797
                                                         0.412964      -0.014480
                                                         0.130056      -0.001027
                          1       8    3dyz              7.922916      -7.691295
                                                         3.213593      24.706133
                                                         1.261473      -0.427465
                                                         0.412964      -0.025081
                                                         0.130056      -0.001778
                          1       8    3dz2              7.922916      -4.440571
                                                         3.213593      14.264092
                                                         1.261473      -0.246797
                                                         0.412964      -0.014480
                                                         0.130056      -0.001027

                          1       9    4dx2              7.922916       4.574445
                                                         3.213593       1.074633
                                                         1.261473       2.069884
                                                         0.412964       0.009946
                                                         0.130056       0.010343
                          1       9    4dxy              7.922916       7.923172
                                                         3.213593       1.861318
                                                         1.261473       3.585145
                                                         0.412964       0.017227
                                                         0.130056       0.017915
                          1       9    4dxz              7.922916       7.923172
                                                         3.213593       1.861318
                                                         1.261473       3.585145
                                                         0.412964       0.017227
                                                         0.130056       0.017915
                          1       9    4dy2              7.922916       4.574445
                                                         3.213593       1.074633
                                                         1.261473       2.069884
                                                         0.412964       0.009946
                                                         0.130056       0.010343
                          1       9    4dyz              7.922916       7.923172
                                                         3.213593       1.861318
                                                         1.261473       3.585145
                                                         0.412964       0.017227
                                                         0.130056       0.017915
                          1       9    4dz2              7.922916       4.574445
                                                         3.213593       1.074633
                                                         1.261473       2.069884
                                                         0.412964       0.009946
                                                         0.130056       0.010343

                          1      10    5dx2              7.922916       0.901685
                                                         3.213593       0.390939
                                                         1.261473      -0.214174
                                                         0.412964       0.321303
                                                         0.130056       0.008898
                          1      10    5dxy              7.922916       1.561765
                                                         3.213593       0.677126
                                                         1.261473      -0.370960
                                                         0.412964       0.556512
                                                         0.130056       0.015411
                          1      10    5dxz              7.922916       1.561765
                                                         3.213593       0.677126
                                                         1.261473      -0.370960
                                                         0.412964       0.556512
                                                         0.130056       0.015411
                          1      10    5dy2              7.922916       0.901685
                                                         3.213593       0.390939
                                                         1.261473      -0.214174
                                                         0.412964       0.321303
                                                         0.130056       0.008898
                          1      10    5dyz              7.922916       1.561765
                                                         3.213593       0.677126
                                                         1.261473      -0.370960
                                                         0.412964       0.556512
                                                         0.130056       0.015411
                          1      10    5dz2              7.922916       0.901685
                                                         3.213593       0.390939
                                                         1.261473      -0.214174
                                                         0.412964       0.321303
                                                         0.130056       0.008898

                          1      11    4fx3              7.922916       1.407301
                                                         3.213593       1.323019
                                                         1.261473       0.408981
                                                         0.412964       0.180490
                                                         0.130056      -0.000292
                          1      11    4fx2y             7.922916       3.146822
                                                         3.213593       2.958360
                                                         1.261473       0.914510
                                                         0.412964       0.403588
                                                         0.130056      -0.000652
                          1      11    4fx2z             7.922916       3.146822
                                                         3.213593       2.958360
                                                         1.261473       0.914510
                                                         0.412964       0.403588
                                                         0.130056      -0.000652
                          1      11    4fxy2             7.922916       3.146822
                                                         3.213593       2.958360
                                                         1.261473       0.914510
[...]
 scf_env_do_scf                       1  3.0    0.001    0.001  600.786  600.786
 scf_env_do_scf_inner_loop          439  4.0    0.009    0.027  565.497  565.497
 qs_ks_update_qs_env                440  5.0    0.002    0.003  477.002  477.137
 rebuild_ks_matrix                  439  6.0    0.001    0.001  476.942  477.068
 qs_ks_build_kohn_sham_matrix       439  7.0    0.060    0.068  476.941  477.067
 fft_wrap_pw1pw2                   8567 10.3    0.172    0.210  261.674  267.999
 pw_poisson_solve                   559  8.4    6.645    8.830  264.649  265.004
 fft_wrap_pw1pw2_250               6083 11.6   10.521   12.174  252.171  258.767
 fft3d_ps                          8567 12.3   93.976  117.582  216.426  225.343
 qs_energies_properties               1  3.0    0.000    0.000  193.350  193.350
 tddfpt                               1  4.0    0.000    0.000  193.350  193.350
 tddfpt_energies                      1  5.0    0.000    0.000  193.305  193.305
 tddfpt_davidson_solver               1  6.0    0.001    0.002  191.968  191.968
 tddfpt_compute_Aop_evects            6  7.0    0.000    0.000  190.839  190.839
 fhxc_kernel                          6  8.0    0.006    0.008  175.324  175.324
 ps_wavelet_solve                   559  9.4  125.831  144.211  161.406  163.591
 qs_rho_update_rho_low              561  5.9    0.006    0.007  142.753  142.784
 calculate_rho_elec                 561  6.9    2.729    3.237  140.918  140.922
 mp_alltoall_d54                    559 10.4   20.446  123.875   20.446  123.875
 xc_pw_derive                      2481 11.0    0.030    0.037  111.763  113.104
 mp_alltoall_z22v                  8567 14.3  103.558  111.309  103.558  111.309
 qs_vxc_create                      439  8.0    0.005    0.005   99.124   99.126
 density_rs2pw                      561  7.9    0.035    0.041   93.637   95.450
 integrate_four_center              679  9.4   16.947   33.322   72.049   72.373
 tddfpt_apply_coulomb               120  9.0    0.003    0.004   71.192   71.495
 xc_rho_set_and_dset_create         440 10.0    1.032    1.360   62.507   70.135
 prepare_gapw_den                   560  8.2    0.009    0.011   69.217   69.850
 x_to_yz                           3868 13.7   11.650   13.550   63.008   65.086
 yz_to_x                           3871 13.0    6.297    7.635   58.434   63.950
 hfx_ks_matrix                      439  8.0    0.016    0.017   58.499   58.752
 mp_sync                           3889 11.3   43.830   58.369   43.830   58.369
 transfer_rs2pw                    2805  9.1    0.082    0.120   56.826   57.741
 xc_pw_divergence                   267 10.4    0.012    0.015   50.269   51.374
 xc_vxc_pw_create                   147  9.0    0.947    1.105   51.318   51.319
 put_rho0_on_grid                   560  9.2    2.761    3.332   48.212   48.845
 xc_exc_calc                        292  9.0    1.417    1.681   47.801   47.802
 grid_collocate_task_list           561  7.9   42.366   44.718   42.366   44.718
 integrate_four_center_main         679 10.4    0.356   10.581    1.258   43.065
 mp_alltoall_d11v                 16112 11.9   28.637   42.739   28.637   42.739
 tddfpt_apply_xc_analytic           120  9.0    0.170    0.231   40.550   41.154
 transfer_pw2rs                    1628 10.5    0.028    0.035   40.139   40.994
 integrate_v_rspace                 267  9.0    0.006    0.008   37.945   38.124
 mp_waitany                       83310 11.7   34.425   37.671   34.425   37.671
 integrate_four_center_bin        55209 11.4    0.902   37.584    0.902   37.584
 potential_pw2rs                    267 10.0    0.093    0.102   36.449   36.619
 transfer_rs2pw_250                1122 10.5   15.198   15.976   34.497   35.699
 init_scf_loop                        1  4.0    0.000    0.000   35.287   35.287
 transfer_pw2rs_250                 827 10.9    9.722   10.399   27.219   28.130
 integrate_vhg0_rspace              559  8.4    0.666    0.778   26.224   26.638
 mp_alltoall_d45                    560 10.4   13.801   24.541   13.801   24.541
 xc_calc_2nd_deriv_analytical       360 10.1    1.430    1.505   24.055   24.126
 mp_sum_d                         11728 10.2   20.015   23.532   20.015   23.532
 sum_up_and_integrate               147  8.0    0.002    0.003   21.122   21.179
 calculate_rho_atom                1120  9.2    3.639   19.744    3.639   19.745
 mp_sum_dv                        24268 11.5   16.390   16.833   16.390   16.833
 pw_scatter_p                      4135 12.7   15.142   15.511   15.142   15.511
 tddfpt_apply_hfx                     6  8.0    0.002    0.003   15.016   15.016
 cp2k_distribution_to_z_slices      559  9.4    5.384    5.865   12.926   13.733
 tddft_hfx_matrix                   240  9.0    0.006    0.009   13.578   13.650
 pw_gather_p                       4432 11.9   11.860   13.553   11.860   13.553
 pw_derive                         4158 11.4   12.290   13.186   12.290   13.186
 transfer_rs2pw_30                  561  9.9    5.318    5.608   12.355   12.588
 qs_scf_new_mos                     439  5.0    0.002    0.002   11.606   11.628
 qs_scf_loop_do_ot                  439  6.0    0.002    0.003   11.603   11.626
 mp_waitall_1                    794686 13.4    8.840   11.372    8.840   11.372
 gaVxcgb_GC                         267  9.4    0.266   10.955    0.266   10.955
 ot_scf_mini                        439  7.0    0.006    0.006   10.897   10.917
 dbcsr_multiply_generic            6288  9.8    0.256    0.281    9.918    9.982
 xc_functional_eval                1558 10.9    0.004    0.010    2.855    9.731
 pbe_lda_eval                      1558 11.9    2.852    9.725    2.852    9.725
 rs_grid_zero                      2214 11.0    9.210    9.584    9.210    9.584
 pw_copy                           6690 10.6    8.731    9.274    8.731    9.274
 fft_wrap_pw1pw2_90                 828 10.5    0.287    0.400    7.231    9.127
 mp_sendrecv_dv                  106590 10.9    8.616    8.972    8.616    8.972
 pw_poisson_set                     560  9.4    0.020    0.025    8.641    8.786
 transfer_pw2rs_30                  267 12.0    4.550    5.236    7.532    7.817
 transfer_rs2pw_90                  561  9.9    2.133    2.348    7.332    7.788
 calculate_vxc_atom                 439  8.0    0.150    1.266    7.524    7.525
 calculate_xc_2nd_deriv_atom        120  9.0    0.032    0.674    0.170    5.797
 pw_integral_ab_c1d_c1d_gs          559  9.4    4.091    4.133    4.763    5.447
 mp_sum_dm                         5071  8.4    4.743    5.429    4.743    5.429
 qs_ot_get_p                        440  8.0    0.002    0.003    5.357    5.371
 multiply_cannon                   6288 10.8    0.567    0.582    5.030    5.167
 pw_copy_to_array                  4432 11.9    4.246    4.883    4.246    4.883
 calc_screening_functions             1 10.0    4.129    4.475    4.496    4.838
 transfer_pw2rs_90                  267 12.0    1.123    1.262    4.017    4.402
 pw_axpy                           4258  9.5    3.974    4.317    3.974    4.317
 qs_ot_p2m_diag                     439  9.0    0.009    0.025    4.117    4.137
 multiply_cannon_loop              6288 11.8    0.943    0.978    3.673    3.828
 pw_copy_from_array                4135 12.7    2.954    3.726    2.954    3.726
 integrate_four_center_getP         679 10.4    0.111    0.121    3.257    3.446
 ot_mini                            439  8.0    0.002    0.002    3.390    3.414
 mp_isendrecv_dv                 179740 11.8    1.693    3.375    1.693    3.375
 mp_isend_dm3                     16662 11.7    1.777    3.346    1.777    3.346
 cp_dbcsr_sm_fm_multiply            769  8.5    0.015    0.016    3.162    3.245
 mp_isend_dv                     343601 13.4    2.095    3.189    2.095    3.189
 pw_zero                           3908 10.4    2.840    3.169    2.840    3.169
 qs_ot_get_derivative               147  9.0    0.001    0.001    3.111    3.114
 make_m2s                         12576 10.8    0.213    0.236    2.856    3.015
 Vh_1c_gg_integrals                 559  8.4    0.105    2.514    2.565    2.829
 cp_dbcsr_syevd                     439 10.0    0.024    0.026    2.718    2.724
 transfer_rs2pw_10                  561  9.9    0.980    1.087    2.560    2.645
 dbcsr_complete_redistribute       3317 10.9    0.120    0.182    2.499    2.582
 integrate_four_center_dist_KS      679 10.4    0.114    0.128    2.528    2.544
 mp_irecv_dm3                     16662 11.7    1.462    2.525    1.462    2.525
 qs_ot_get_derivative_diag          146 10.0    0.003    0.003    2.409    2.412
 mp_max_i                          1020  6.5    1.652    2.226    1.652    2.226
 cp_fm_syevd                        487 10.7    0.003    0.004    2.134    2.144
 make_images                      12576 11.8    0.493    0.504    2.036    2.085
 copy_dbcsr_to_fm                  1258  9.9    0.016    0.017    1.896    1.912
 calculate_rho_atom_coeff           561  6.9    0.134    0.340    1.830    1.862
 update_ks_atom                     559  8.2    0.079    0.329    1.575    1.834
 cp_fm_redistribute_end             487 11.7    0.975    1.724    0.987    1.737
 mp_bcast_dm                       3796  9.5    1.506    1.735    1.506    1.735
 fft_wrap_pw1pw2_30                 828 10.5    0.053    0.063    1.509    1.680
 scale_and_distribute              1118 10.4    1.408    1.597    1.408    1.597
 copy_fm_to_dbcsr                  2057  9.9    0.009    0.010    1.468    1.549
 rs_gather_matrices                 267 10.0    0.003    0.020    1.378    1.524
 transfer_pw2rs_10                  267 12.0    0.489    0.549    1.343    1.498
 cp_fm_syevd_base                   487 11.7    0.742    1.490    0.742    1.490
 create_qs_kind_set                   1  2.0    0.000    0.000    1.487    1.488
 read_qs_kind                         2  3.0    0.733    0.771    1.487    1.488
 mp_sum_l                         29153 10.7    1.306    1.441    1.306    1.441
 grid_integrate_task_list           267 10.0    0.110    1.399    0.110    1.399
 qs_ot_get_orbitals                 439  8.0    0.002    0.002    1.378    1.389
 calculate_rho0_atom               1120  9.2    1.219    1.263    1.219    1.263
 cp_dbcsr_sm_fm_multiply_core       769  9.5    0.002    0.002    1.090    1.126
 mp_alltoall_i11v                 11648 12.0    1.040    1.041    1.040    1.041
 multiply_cannon_metrocomm4      138336 12.8    0.410    0.426    0.791    0.842
 make_images_sizes                12576 12.8    0.013    0.015    0.781    0.825
 mp_alltoall_i44                  12576 13.8    0.768    0.812    0.768    0.812
 pw_poisson_rebuild                 559  9.4    0.000    0.001    0.758    0.773
 ps_wavelet_create                    1 10.0    0.000    0.000    0.757    0.772
 RS_z_slice_distribution              1 11.0    0.678    0.714    0.757    0.772
 multiply_cannon_metrocomm2      132048 12.8    0.391    0.406    0.720    0.762
 parser_read_line                156724  4.0    0.055    0.060    0.754    0.759
 dbcsr_desymmetrize_deep           1259 10.9    0.024    0.028    0.725    0.741
 powell_optimize                 281037 11.0    0.703    0.726    0.703    0.726
 calculate_dm_sparse                440  7.0    0.001    0.002    0.707    0.715
 multiply_cannon_metrocomm3      150912 12.8    0.238    0.246    0.608    0.706
 parser_read_line_low               170  5.0    0.033    0.362    0.700    0.706
 offload_free_buffer                567  9.3    0.344    0.687    0.344    0.687
 tddfpt_orthonormalize_psi1_psi       7  6.9    0.011    0.012    0.681    0.681
 broadcast_input_information        170  6.0    0.120    0.129    0.666    0.678
 dbcsr_make_images_dense           9856 11.9    0.153    0.168    0.446    0.640
 tddfpt_print_nto_analysis            1  6.0    0.002    0.003    0.627    0.628
 fft_wrap_pw1pw2_10                 828 10.5    0.013    0.014    0.591    0.625
 calc_pair_dist_radii                 1 10.0    0.258    0.262    0.594    0.608
 mp_rank_compare                   8567 13.3    0.514    0.549    0.514    0.549
 cp_dbcsr_plus_fm_fm_t              121  9.0    0.002    0.002    0.543    0.547
 arnoldi_extremal                   440  9.0    0.007    0.008    0.512    0.520
 arnoldi_normal_ev                  441 10.0    0.008    0.009    0.508    0.515
 prepare_dr1dr                      360 11.1    0.428    0.503    0.428    0.503
 mp_alltoall_i22                   4722 11.9    0.413    0.502    0.413    0.502
 tddfpt_apply_energy_diff             6  8.0    0.001    0.001    0.499    0.499
 multiply_cannon_metrocomm1      150912 12.8    0.166    0.171    0.396    0.498
 hybrid_alltoall_any              13835 13.6    0.107    0.143    0.448    0.498
 dbcsr_create_new                128325 12.4    0.350    0.364    0.476    0.495
 dbcsr_make_dense_low             28886 12.8    0.144    0.148    0.217    0.468
 mp_allgather_i34                  6288 11.8    0.412    0.455    0.412    0.455
 integrate_four_center_load         679 10.4    0.002    0.002    0.348    0.443
 hfx_load_balance                     1 11.0    0.000    0.000    0.346    0.441
 hfx_load_balance_range               1 12.0    0.000    0.000    0.339    0.433
 pw_scale                           828  9.5    0.326    0.417    0.326    0.417
 tddfpt_compute_residual_vects        5  7.0    0.001    0.001    0.413    0.413
 cp_fm_redistribute_start           487 11.7    0.319    0.329    0.402    0.408
 make_images_data                 12576 12.8    0.120    0.160    0.262    0.407
 dbcsr_finalize                   13065 11.3    0.063    0.087    0.295    0.393
 mp_bcast_i_src                     680  7.0    0.347    0.388    0.347    0.388
 tddfpt_construct_ground_state_       1  6.0    0.000    0.000    0.377    0.378
 mp_alltoall_z11v                   828 13.5    0.339    0.372    0.339    0.372
 build_subspace                     441 11.0    0.017    0.019    0.351    0.359
 parallel_gemm_fm                  1026  8.3    0.001    0.001    0.336    0.349
 parallel_gemm_fm_gemm             1026  9.3    0.001    0.002    0.334    0.348
 cp_fm_gemm                        1026 10.3    0.333    0.346    0.333    0.346
 init_scf_run                         1  3.0    0.000    0.000    0.343    0.343
 scf_env_initial_rho_setup            1  4.0    0.000    0.000    0.343    0.343
 cp_fm_geeig                         20  7.0    0.001    0.001    0.325    0.325
 multiply_cannon_multrec         150912 12.8    0.190    0.298    0.216    0.325
 mp_irecv_dv                     340535 13.4    0.251    0.306    0.251    0.306
 dbcsr_special_finalize           31440 12.8    0.074    0.077    0.241    0.299
 dbcsr_matrix_vector_mult          3712 12.0    0.034    0.036    0.181    0.292
 qs_init_subsys                       1  2.0    0.004    0.004    0.263    0.264
 ot_new_cg_direction                147  9.0    0.001    0.002    0.261    0.262
 vxc_of_r_new                       878  9.0    0.001    0.020    0.008    0.252
 qs_env_setup                         1  3.0    0.000    0.000    0.248    0.250
 qs_env_rebuild_pw_env                2  3.5    0.000    0.000    0.247    0.249
 pw_env_rebuild                       1  5.0    0.001    0.001    0.247    0.248
 make_dense_data                  28886 13.8    0.011    0.108    0.013    0.243
 xz_to_yz                           561 11.9    0.020    0.024    0.230    0.242
 mp_isend_iv                     296306 13.8    0.224    0.240    0.224    0.240
 apply_preconditioner_dbcsr         148 10.0    0.000    0.000    0.230    0.236
 apply_single                       148 11.0    0.000    0.000    0.230    0.236
 pw_grid_setup                        4  6.0    0.000    0.000    0.232    0.233
 pw_grid_setup_internal               4  7.0    0.006    0.008    0.232    0.233
 dbcsr_iterator_start             99732 12.6    0.096    0.195    0.118    0.233
 mp_bcast_am_src                    170  7.0    0.156    0.175    0.196    0.229
 create_kernel_env                    1  6.0    0.000    0.000    0.202    0.224
 xc_prep_2nd_deriv                    1  7.0    0.000    0.000    0.202    0.224
 dbcsr_merge_all                  11619 12.2    0.132    0.168    0.165    0.219
 mp_cart_sub                       2519 11.9    0.213    0.215    0.213    0.215
 dbcsr_destroy                   124850 11.5    0.153    0.159    0.205    0.215
 mp_cart_create                    2381 10.6    0.178    0.188    0.181    0.192
 dbcsr_data_new                  338585 13.0    0.140    0.191    0.140    0.191
 rs_scatter_matrices                561  7.9    0.004    0.012    0.175    0.178
 dbcsr_data_release              579453 13.3    0.148    0.176    0.148    0.176
 yz_to_xz                           267 14.0    0.015    0.016    0.144    0.169
 dbcsr_make_dense                  4246 11.1    0.018    0.019    0.091    0.165
 pw_grid_sort                         4  8.0    0.107    0.110    0.156    0.160
 dbcsr_new_transposed              3024 10.8    0.017    0.019    0.147    0.155
 cp_fm_trace_a1b1t1_aa             7470  8.0    0.035    0.038    0.152    0.155
 dbcsr_iterator_stop              99732 12.6    0.071    0.130    0.087    0.153
 setup_buffer_matrices            12576 11.8    0.047    0.048    0.143    0.147
 mp_irecv_iv                     297076 13.8    0.129    0.144    0.129    0.144
 mp_sum_b                          9857 10.9    0.136    0.140    0.136    0.140
 dbcsr_work_create                44464 12.5    0.076    0.085    0.108    0.132
 dbcsr_add_d                       1721  9.5    0.003    0.003    0.014    0.125
 dbcsr_make_undense                4246 11.1    0.028    0.056    0.054    0.124
 dbcsr_add_anytype                 1721 10.5    0.003    0.020    0.011    0.122
 dbcsr_dot                         1467  8.7    0.009    0.021    0.096    0.120
 dbcsr_col_vec_to_rep_row          4204 12.6    0.029    0.032    0.065    0.119
 qs_energies_init_hamiltonians        1  3.0    0.000    0.000    0.118    0.118
 build_core_hamiltonian_matrix        1  4.0    0.000    0.000    0.112    0.112
 xc_2nd_deriv_of_r                  240 10.0    0.001    0.020    0.003    0.111
 xc_pw_smooth                       147 10.0    0.000    0.001    0.078    0.110
 overlap_condnum                      1  5.0    0.000    0.000    0.109    0.110
 dbcsr_work_destroy_all           44464 13.4    0.071    0.079    0.094    0.109
 arnoldi_init                       441 11.0    0.005    0.006    0.097    0.106
 Gram_Schmidt_ortho                3384 11.9    0.004    0.007    0.086    0.106
 quick_finalize                   22635 14.0    0.047    0.058    0.079    0.101
 dbcsr_redistribute                 146 12.0    0.004    0.005    0.097    0.100
 dbcsr_mm_multrec_init             6288 11.8    0.012    0.014    0.086    0.095
 dbcsr_merge_single_wm            10210 13.2    0.049    0.060    0.057    0.092
 mp_cart_rank                    214764  9.9    0.064    0.084    0.064    0.084
 dbcsr_mm_csr_init                 6288 12.8    0.059    0.065    0.074    0.082
 dbcsr_copy                        9553  9.9    0.032    0.036    0.071    0.080
 evaluate_core_matrix_traces        439  6.0    0.001    0.002    0.058    0.080
 -------------------------------------------------------------------------------

 The number of warnings for this run is : 2
 
 -------------------------------------------------------------------------------
  **** **** ******  **  PROGRAM ENDED AT                 2025-04-28 08:26:20.109
 ***** ** ***  *** **   PROGRAM RAN ON                              i04r11c03s01
 **    ****   ******    PROGRAM RAN BY                                   di38fab
 ***** **    ** ** **   PROGRAM PROCESS ID                               1550510
  **** **  *******  **  PROGRAM STOPPED IN /hppfs/scratch/04/di38fab/07_MOL_non_
                                           aug/05_MOL_non_aug/05_MOL/W4-11+ALK/b
                                           ecl2/TZVPP/TDDFT
