 DBCSR| CPU Multiplication driver                                           BLAS (U)
 DBCSR| Multrec recursion limit                                              512 (U)
 DBCSR| Multiplication stack size                                           1000 (D)
 DBCSR| Maximum elements for images                                    UNLIMITED (U)
 DBCSR| Multiplicative factor virtual images                                   1 (U)
 DBCSR| Use multiplication densification                                       T (D)
 DBCSR| Multiplication size stacks                                             3 (U)
 DBCSR| Use memory pool for CPU allocation                                     F (U)
 DBCSR| Number of 3D layers                                               SINGLE (U)
 DBCSR| Use MPI memory allocation                                              F (U)
 DBCSR| Use RMA algorithm                                                      F (U)
 DBCSR| Use Communication thread                                               T (U)
 DBCSR| Communication thread load                                             75 (D)
 DBCSR| MPI: My process id                                                     0
 DBCSR| MPI: Number of processes                                             216
 DBCSR| OMP: Current number of threads                                         4
 DBCSR| OMP: Max number of threads                                             4
 DBCSR| Split modifier for TAS multiplication algorithm                  1.0E+00 (U)


  **** **** ******  **  PROGRAM STARTED AT               2025-04-02 23:35:37.980
 ***** ** ***  *** **   PROGRAM STARTED ON                          i08r03c04s05
 **    ****   ******    PROGRAM STARTED BY                               di38fab
 ***** **    ** ** **   PROGRAM PROCESS ID                               1833589
  **** **  *******  **  PROGRAM STARTED IN /hppfs/scratch/04/di38fab/07_MOL_non_
                                           aug/05_MOL_non_aug/05_MOL/aUKBqsEOTmq
                                           69kFe5R_nOg/5k_set_final_qzvp/PAZROZ/
                                           TZVPP/TDDFT

 CP2K| version string:                 CP2K version 2025.1 (Development Version)
 CP2K| source code revision number:                                  git:d2e611a
 CP2K| cp2kflags: omp libint fftw3 libxc parallel scalapack max_contr=4         
 CP2K| is freely available from                            https://www.cp2k.org/
 CP2K| Program compiled at                       Thu 06 Mar 2025 05:09:20 PM CET
 CP2K| Program compiled on                                               login02
 CP2K| Program compiled for                                        Supermuc-foss
 CP2K| Data directory path                  /hppfs/work/pn36zo/di38fab/cp2k/data
 CP2K| Input file name                                                    GW.inp

 GLOBAL| Force Environment number                                              1
 GLOBAL| Basis set file name            /hppfs/scratch/04/di38fab/04_TMD/BASIS_A
 GLOBAL| Potential file name            /hppfs/work/pn36zo/di38fab/cp2k/data/ALL
 GLOBAL| MM Potential file name                                     MM_POTENTIAL
 GLOBAL| Coordinate file name                                      __STD_INPUT__
 GLOBAL| Method name                                                        CP2K
 GLOBAL| Project name                                                       MoS2
 GLOBAL| Run type                                                         ENERGY
 GLOBAL| FFT library                                                       FFTW3
 GLOBAL| Diagonalization library                                       ScaLAPACK
 GLOBAL| DGEMM library                                                      BLAS
 GLOBAL| Orthonormality check for eigenvectors                          DISABLED
 GLOBAL| Matrix multiplication library                                 ScaLAPACK
 GLOBAL| All-to-all communication in single precision                          F
 GLOBAL| FFTs using library dependent lengths                                  F
 GLOBAL| Grid backend                                                       AUTO
 GLOBAL| Global print level                                               MEDIUM
 GLOBAL| MPI I/O enabled                                                       T
 GLOBAL| Total number of message passing processes                           216
 GLOBAL| Number of threads for this process                                    4
 GLOBAL| This output is from process                                           0
 GLOBAL| OpenMP stack size per thread (OMP_STACKSIZE)                    default
 GLOBAL| CPU model name             Intel(R) Xeon(R) Platinum 8174 CPU @ 3.10GHz

 MEMORY| system memory details [Kb]
 MEMORY|                        rank 0           min           max       average
 MEMORY| MemTotal             98436868      98436640      98436868      98436678
 MEMORY| MemFree              83950576      83503644      84174592      83879760
 MEMORY| Buffers                     0             0             0             0
 MEMORY| Cached                2401696       2396852       2426648       2407843
 MEMORY| Slab                  1260728       1209112       1260940       1247972
 MEMORY| SReclaimable           280144        274180        287804        280436
 MEMORY| MemLikelyFree        86632416      86197024      86861048      86568040


 *** Fundamental physical constants (SI units) ***

 *** Literature: B. J. Mohr and B. N. Taylor,
 ***             CODATA recommended values of the fundamental physical
 ***             constants: 2006, Web Version 5.1
 ***             http://physics.nist.gov/constants

 Speed of light in vacuum [m/s]                             2.99792458000000E+08
 Magnetic constant or permeability of vacuum [N/A**2]       1.25663706143592E-06
 Electric constant or permittivity of vacuum [F/m]          8.85418781762039E-12
 Planck constant (h) [J*s]                                  6.62606896000000E-34
 Planck constant (h-bar) [J*s]                              1.05457162825177E-34
 Elementary charge [C]                                      1.60217648700000E-19
 Electron mass [kg]                                         9.10938215000000E-31
 Electron g factor [ ]                                     -2.00231930436220E+00
 Proton mass [kg]                                           1.67262163700000E-27
 Fine-structure constant                                    7.29735253760000E-03
 Rydberg constant [1/m]                                     1.09737315685270E+07
 Avogadro constant [1/mol]                                  6.02214179000000E+23
 Boltzmann constant [J/K]                                   1.38065040000000E-23
 Atomic mass unit [kg]                                      1.66053878200000E-27
 Bohr radius [m]                                            5.29177208590000E-11

 *** Conversion factors ***

 [u] -> [a.u.]                                              1.82288848426455E+03
 [Angstrom] -> [Bohr] = [a.u.]                              1.88972613288564E+00
 [a.u.] = [Bohr] -> [Angstrom]                              5.29177208590000E-01
 [a.u.] -> [s]                                              2.41888432650478E-17
 [a.u.] -> [fs]                                             2.41888432650478E-02
 [a.u.] -> [J]                                              4.35974393937059E-18
 [a.u.] -> [N]                                              8.23872205491840E-08
 [a.u.] -> [K]                                              3.15774647902944E+05
 [a.u.] -> [kJ/mol]                                         2.62549961709828E+03
 [a.u.] -> [kcal/mol]                                       6.27509468713739E+02
 [a.u.] -> [Pa]                                             2.94210107994716E+13
 [a.u.] -> [bar]                                            2.94210107994716E+08
 [a.u.] -> [atm]                                            2.90362800883016E+08
 [a.u.] -> [eV]                                             2.72113838565563E+01
 [a.u.] -> [Hz]                                             6.57968392072181E+15
 [a.u.] -> [1/cm] (wave numbers)                            2.19474631370540E+05
 [a.u./Bohr**2] -> [1/cm]                                   5.14048714338585E+03
 

 CELL_TOP| Volume [angstrom^3]:                                     27000.000000
 CELL_TOP| Vector a [angstrom    30.000     0.000     0.000   |a| =    30.000000
 CELL_TOP| Vector b [angstrom     0.000    30.000     0.000   |b| =    30.000000
 CELL_TOP| Vector c [angstrom     0.000     0.000    30.000   |c| =    30.000000
 CELL_TOP| Angle (b,c), alpha [degree]:                                90.000000
 CELL_TOP| Angle (a,c), beta  [degree]:                                90.000000
 CELL_TOP| Angle (a,b), gamma [degree]:                                90.000000
 CELL_TOP| Numerically orthorhombic:                                         YES
 CELL_TOP| Periodicity                                                      NONE

 GENERATE|  Preliminary Number of Bonds generated:                             0
 GENERATE|  Achieved consistency in connectivity generation.

 CELL| Volume [angstrom^3]:                                         27000.000000
 CELL| Vector a [angstrom]:      30.000     0.000     0.000   |a| =    30.000000
 CELL| Vector b [angstrom]:       0.000    30.000     0.000   |b| =    30.000000
 CELL| Vector c [angstrom]:       0.000     0.000    30.000   |c| =    30.000000
 CELL| Angle (b,c), alpha [degree]:                                    90.000000
 CELL| Angle (a,c), beta  [degree]:                                    90.000000
 CELL| Angle (a,b), gamma [degree]:                                    90.000000
 CELL| Numerically orthorhombic:                                             YES
 CELL| Periodicity                                                          NONE

 CELL_REF| Volume [angstrom^3]:                                     27000.000000
 CELL_REF| Vector a [angstrom    30.000     0.000     0.000   |a| =    30.000000
 CELL_REF| Vector b [angstrom     0.000    30.000     0.000   |b| =    30.000000
 CELL_REF| Vector c [angstrom     0.000     0.000    30.000   |c| =    30.000000
 CELL_REF| Angle (b,c), alpha [degree]:                                90.000000
 CELL_REF| Angle (a,c), beta  [degree]:                                90.000000
 CELL_REF| Angle (a,b), gamma [degree]:                                90.000000
 CELL_REF| Numerically orthorhombic:                                         YES
 CELL_REF| Periodicity                                                      NONE

 *******************************************************************************
 *******************************************************************************
 **                                                                           **
 **     #####                         ##              ##                      **
 **    ##   ##            ##          ##              ##                      **
 **   ##     ##                       ##            ######                    **
 **   ##     ##  ##   ##  ##   #####  ##  ##   ####   ##    #####    #####    **
 **   ##     ##  ##   ##  ##  ##      ## ##   ##      ##   ##   ##  ##   ##   **
 **   ##  ## ##  ##   ##  ##  ##      ####     ###    ##   ######   ######    **
 **    ##  ###   ##   ##  ##  ##      ## ##      ##   ##   ##       ##        **
 **     #######   #####   ##   #####  ##  ##  ####    ##    #####   ##        **
 **           ##                                                    ##        **
 **                                                                           **
 **                                                ... make the atoms dance   **
 **                                                                           **
 **            Copyright (C) by CP2K developers group (2000-2025)             **
 **                      J. Chem. Phys. 152, 194103 (2020)                    **
 **                                                                           **
 *******************************************************************************

 DFT| Spin restricted Kohn-Sham (RKS) calculation                            RKS
 DFT| Multiplicity                                                             1
 DFT| Number of spin states                                                    1
 DFT| Charge                                                                   0
 DFT| Self-interaction correction (SIC)                                       NO
 DFT| Cutoffs: density                                              1.000000E-10
 DFT|          gradient                                             1.000000E-10
 DFT|          tau                                                  1.000000E-10
 DFT|          cutoff_smoothing_range                               0.000000E+00
 DFT| XC density smoothing                                                  NONE
 DFT| XC derivatives                                                          PW

 FUNCTIONAL| PBE:
 FUNCTIONAL| J.P.Perdew, K.Burke, M.Ernzerhof, Phys. Rev. Letter, vol. 77, n 18,
 FUNCTIONAL|  pp. 3865-3868, (1996)sx=0.750sc=1.000{spin unpolarized}           


 QS| Method:                                                                GAPW
 QS| Density plane wave grid type                        NON-SPHERICAL FULLSPACE
 QS| Number of grid levels:                                                    4
 QS| Density cutoff [a.u.]:                                                250.0
 QS| Multi grid cutoff [a.u.]: 1) grid level                               250.0
 QS|                           2) grid level                                83.3
 QS|                           3) grid level                                27.8
 QS|                           4) grid level                                 9.3
 QS| Grid level progression factor:                                          3.0
 QS| Relative density cutoff [a.u.]:                                        50.0
 QS| Interaction thresholds: eps_pgf_orb:                                1.0E-12
 QS|                         eps_filter_matrix:                          0.0E+00
 QS|                         eps_core_charge:                            1.0E-14
 QS|                         eps_rho_gspace:                             1.0E-12
 QS|                         eps_rho_rspace:                             1.0E-12
 QS|                         eps_gvg_rspace:                             1.0E-06
 QS|                         eps_ppl:                                    1.0E-02
 QS|                         eps_ppnl:                                   1.0E-08
 QS| GAPW|      One center basis from orbital basis primitives
 QS| GAPW|                   eps_fit:                                    1.0E-04
 QS| GAPW|                   eps_iso:                                    1.0E-12
 QS| GAPW|                   eps_svd:                                    1.0E-08
 QS| GAPW|                   eps_cpc:                                    1.0E-12
 QS| GAPW|   atom-r-grid: quadrature:                                     GC_LOG
 QS| GAPW|      atom-s-grid:  max l :                                          6
 QS| GAPW|      max_l_rho0 :                                                   2


 ATOMIC KIND INFORMATION

  1. Atomic kind: C                                     Number of atoms:       5

     Orbital Basis Set                                       TZVPP-MOLOPT-GGA-ae

       Number of orbital shell sets:                                           2
       Number of orbital shells:                                              11
       Number of primitive Cartesian functions:                               12
       Number of Cartesian basis functions:                                   36
       Number of spherical basis functions:                                   31
       Norm type:                                                              2

       Normalised Cartesian orbitals:

                        Set   Shell   Orbital            Exponent    Coefficient

                          1       1    1s               34.417212       0.637474
                                                         6.739673       1.752510
                                                         2.441624       0.446183
                                                         0.806764       0.003692
                                                         0.283960       0.027513
                                                         0.097098       0.019281

                          1       2    2s               34.417212       1.102934
                                                         6.739673      -0.288836
                                                         2.441624      -0.104551
                                                         0.806764       0.362633
                                                         0.283960       0.094997
                                                         0.097098       0.029117

                          1       3    3s               34.417212      -6.120053
                                                         6.739673      -0.168746
                                                         2.441624      -0.199197
                                                         0.806764      -0.252838
                                                         0.283960       0.169545
                                                         0.097098       0.047046

                          1       4    4s               34.417212      -3.786931
                                                         6.739673      -0.401007
                                                         2.441624      -0.053941
                                                         0.806764       0.091223
                                                         0.283960      -0.341415
                                                         0.097098       0.188374

                          1       5    2px              34.417212       2.016536
                                                         6.739673       2.243109
                                                         2.441624       0.695625
                                                         0.806764       0.779023
                                                         0.283960       0.032186
                                                         0.097098       0.005087
                          1       5    2py              34.417212       2.016536
                                                         6.739673       2.243109
                                                         2.441624       0.695625
                                                         0.806764       0.779023
                                                         0.283960       0.032186
                                                         0.097098       0.005087
                          1       5    2pz              34.417212       2.016536
                                                         6.739673       2.243109
                                                         2.441624       0.695625
                                                         0.806764       0.779023
                                                         0.283960       0.032186
                                                         0.097098       0.005087

                          1       6    3px              34.417212       1.690366
                                                         6.739673      -2.720242
                                                         2.441624       0.912249
                                                         0.806764      -0.188640
                                                         0.283960       0.294367
                                                         0.097098       0.008084
                          1       6    3py              34.417212       1.690366
                                                         6.739673      -2.720242
                                                         2.441624       0.912249
                                                         0.806764      -0.188640
                                                         0.283960       0.294367
                                                         0.097098       0.008084
                          1       6    3pz              34.417212       1.690366
                                                         6.739673      -2.720242
                                                         2.441624       0.912249
                                                         0.806764      -0.188640
                                                         0.283960       0.294367
                                                         0.097098       0.008084

                          1       7    4px              34.417212     -12.705833
                                                         6.739673       1.761645
                                                         2.441624      -0.855991
                                                         0.806764      -0.070055
                                                         0.283960      -0.017243
                                                         0.097098       0.081068
                          1       7    4py              34.417212     -12.705833
                                                         6.739673       1.761645
                                                         2.441624      -0.855991
                                                         0.806764      -0.070055
                                                         0.283960      -0.017243
                                                         0.097098       0.081068
                          1       7    4pz              34.417212     -12.705833
                                                         6.739673       1.761645
                                                         2.441624      -0.855991
                                                         0.806764      -0.070055
                                                         0.283960      -0.017243
                                                         0.097098       0.081068

                          1       8    3dx2             34.417212     174.894573
                                                         6.739673       4.248634
                                                         2.441624       3.763414
                                                         0.806764       0.546922
                                                         0.283960       0.015501
                                                         0.097098       0.001415
                          1       8    3dxy             34.417212     302.926287
                                                         6.739673       7.358850
                                                         2.441624       6.518424
                                                         0.806764       0.947296
                                                         0.283960       0.026849
                                                         0.097098       0.002451
                          1       8    3dxz             34.417212     302.926287
                                                         6.739673       7.358850
                                                         2.441624       6.518424
                                                         0.806764       0.947296
                                                         0.283960       0.026849
                                                         0.097098       0.002451
                          1       8    3dy2             34.417212     174.894573
                                                         6.739673       4.248634
                                                         2.441624       3.763414
                                                         0.806764       0.546922
                                                         0.283960       0.015501
                                                         0.097098       0.001415
                          1       8    3dyz             34.417212     302.926287
                                                         6.739673       7.358850
                                                         2.441624       6.518424
                                                         0.806764       0.947296
                                                         0.283960       0.026849
                                                         0.097098       0.002451
                          1       8    3dz2             34.417212     174.894573
                                                         6.739673       4.248634
                                                         2.441624       3.763414
                                                         0.806764       0.546922
                                                         0.283960       0.015501
                                                         0.097098       0.001415

                          1       9    4dx2             34.417212    -164.169372
                                                         6.739673      -4.401044
                                                         2.441624      -2.510108
                                                         0.806764       0.323683
                                                         0.283960       0.139703
                                                         0.097098       0.001225
                          1       9    4dxy             34.417212    -284.349694
                                                         6.739673      -7.622831
                                                         2.441624      -4.347634
                                                         0.806764       0.560636
                                                         0.283960       0.241972
                                                         0.097098       0.002122
                          1       9    4dxz             34.417212    -284.349694
                                                         6.739673      -7.622831
                                                         2.441624      -4.347634
                                                         0.806764       0.560636
                                                         0.283960       0.241972
                                                         0.097098       0.002122
                          1       9    4dy2             34.417212    -164.169372
                                                         6.739673      -4.401044
                                                         2.441624      -2.510108
                                                         0.806764       0.323683
                                                         0.283960       0.139703
                                                         0.097098       0.001225
                          1       9    4dyz             34.417212    -284.349694
                                                         6.739673      -7.622831
                                                         2.441624      -4.347634
                                                         0.806764       0.560636
                                                         0.283960       0.241972
                                                         0.097098       0.002122
                          1       9    4dz2             34.417212    -164.169372
                                                         6.739673      -4.401044
                                                         2.441624      -2.510108
                                                         0.806764       0.323683
                                                         0.283960       0.139703
                                                         0.097098       0.001225

                          1      10    4fx3             34.417212      49.427593
                                                         6.739673      -2.026957
                                                         2.441624       1.033755
                                                         0.806764       0.576468
                                                         0.283960       0.042127
                                                         0.097098      -0.000799
                          1      10    4fx2y            34.417212     110.523457
                                                         6.739673      -4.532415
                                                         2.441624       2.311546
                                                         0.806764       1.289022
                                                         0.283960       0.094199
                                                         0.097098      -0.001786
                          1      10    4fx2z            34.417212     110.523457
                                                         6.739673      -4.532415
                                                         2.441624       2.311546
                                                         0.806764       1.289022
                                                         0.283960       0.094199
                                                         0.097098      -0.001786
                          1      10    4fxy2            34.417212     110.523457
                                                         6.739673      -4.532415
                                                         2.441624       2.311546
                                                         0.806764       1.289022
                                                         0.283960       0.094199
                                                         0.097098      -0.001786
                          1      10    4fxyz            34.417212     191.432243
                                                         6.739673      -7.850372
                                                         2.441624       4.003716
                                                         0.806764       2.232651
                                                         0.283960       0.163158
                                                         0.097098      -0.003093
                          1      10    4fxz2            34.417212     110.523457
                                                         6.739673      -4.532415
                                                         2.441624       2.311546
                                                         0.806764       1.289022
                                                         0.283960       0.094199
                                                         0.097098      -0.001786
                          1      10    4fy3             34.417212      49.427593
                                                         6.739673      -2.026957
                                                         2.441624       1.033755
                                                         0.806764       0.576468
                                                         0.283960       0.042127
                                                         0.097098      -0.000799
                          1      10    4fy2z            34.417212     110.523457
                                                         6.739673      -4.532415
                                                         2.441624       2.311546
                                                         0.806764       1.289022
                                                         0.283960       0.094199
                                                         0.097098      -0.001786
                          1      10    4fyz2            34.417212     110.523457
                                                         6.739673      -4.532415
                                                         2.441624       2.311546
                                                         0.806764       1.289022
                                                         0.283960       0.094199
                                                         0.097098      -0.001786
                          1      10    4fz3             34.417212      49.427593
                                                         6.739673      -2.026957
                                                         2.441624       1.033755
                                                         0.806764       0.576468
                                                         0.283960       0.042127
                                                         0.097098      -0.000799

                          2       1    1s            13575.369584       0.323227
                                                      2035.237517       2.062509
                                                       463.111112       2.210797
                                                       131.318553       4.954487
                                                        42.899593       1.730189
                                                        15.855102       4.257999

     RI Auxiliary Basis Set                                    aug-cc-pV5Z-OPTRI

       Number of orbital shell sets:                                          22
       Number of orbital shells:                                              22
       Number of primitive Cartesian functions:                               22
       Number of Cartesian basis functions:                                  188
       Number of spherical basis functions:                                  122
       Norm type:                                                              2

       Normalised Cartesian orbitals:

                        Set   Shell   Orbital            Exponent    Coefficient

                          1       1    1gx4              0.114786       0.002892
                          1       1    1gx3y             0.114786       0.007650
                          1       1    1gx3z             0.114786       0.007650
                          1       1    1gx2y2            0.114786       0.009877
                          1       1    1gx2yz            0.114786       0.017107
                          1       1    1gx2z2            0.114786       0.009877
                          1       1    1gxy3             0.114786       0.007650
                          1       1    1gxy2z            0.114786       0.017107
                          1       1    1gxyz2            0.114786       0.017107
                          1       1    1gxz3             0.114786       0.007650
                          1       1    1gy4              0.114786       0.002892
                          1       1    1gy3z             0.114786       0.007650
                          1       1    1gy2z2            0.114786       0.009877
                          1       1    1gyz3             0.114786       0.007650
                          1       1    1gz4              0.114786       0.002892

                          2       1    1px               0.121920       0.102691
                          2       1    1py               0.121920       0.102691
                          2       1    1pz               0.121920       0.102691

                          3       1    1s                0.152658       0.174060

                          4       1    1px               0.299745       0.316140
                          4       1    1py               0.299745       0.316140
                          4       1    1pz               0.299745       0.316140

                          5       1    1s                0.384933       0.348296

                          6       1    1hx5              0.391317       0.035161
                          6       1    1hx4y             0.391317       0.105483
                          6       1    1hx4z             0.391317       0.105483
                          6       1    1hx3y2            0.391317       0.161128
                          6       1    1hx3yz            0.391317       0.279083
                          6       1    1hx3z2            0.391317       0.161128
                          6       1    1hx2y3            0.391317       0.161128
                          6       1    1hx2y2z           0.391317       0.360294
                          6       1    1hx2yz2           0.391317       0.360294
                          6       1    1hx2z3            0.391317       0.161128
                          6       1    1hxy4             0.391317       0.105483
                          6       1    1hxy3z            0.391317       0.279083
                          6       1    1hxy2z2           0.391317       0.360294
                          6       1    1hxyz3            0.391317       0.279083
                          6       1    1hxz4             0.391317       0.105483
                          6       1    1hy5              0.391317       0.035161
                          6       1    1hy4z             0.391317       0.105483
                          6       1    1hy3z2            0.391317       0.161128
                          6       1    1hy2z3            0.391317       0.161128
                          6       1    1hyz4             0.391317       0.105483
                          6       1    1hz5              0.391317       0.035161

                          7       1    1fx3              0.540840       0.369283
                          7       1    1fx2y             0.540840       0.825742
                          7       1    1fx2z             0.540840       0.825742
                          7       1    1fxy2             0.540840       0.825742
                          7       1    1fxyz             0.540840       1.430227
                          7       1    1fxz2             0.540840       0.825742
                          7       1    1fy3              0.540840       0.369283
                          7       1    1fy2z             0.540840       0.825742
                          7       1    1fyz2             0.540840       0.825742
                          7       1    1fz3              0.540840       0.369283

                          8       1    1px               0.678328       0.877485
                          8       1    1py               0.678328       0.877485
                          8       1    1pz               0.678328       0.877485

                          9       1    1dx2              0.754246       1.004748
                          9       1    1dxy              0.754246       1.740275
                          9       1    1dxz              0.754246       1.740275
                          9       1    1dy2              0.754246       1.004748
                          9       1    1dyz              0.754246       1.740275
                          9       1    1dz2              0.754246       1.004748

                         10       1    1gx4              1.012792       1.152434
                         10       1    1gx3y             1.012792       3.049054
                         10       1    1gx3z             1.012792       3.049054
                         10       1    1gx2y2            1.012792       3.936312
                         10       1    1gx2yz            1.012792       6.817893
                         10       1    1gx2z2            1.012792       3.936312
                         10       1    1gxy3             1.012792       3.049054
                         10       1    1gxy2z            1.012792       6.817893
                         10       1    1gxyz2            1.012792       6.817893
                         10       1    1gxz3             1.012792       3.049054
                         10       1    1gy4              1.012792       1.152434
                         10       1    1gy3z             1.012792       3.049054
                         10       1    1gy2z2            1.012792       3.936312
                         10       1    1gyz3             1.012792       3.049054
                         10       1    1gz4              1.012792       1.152434

                         11       1    1s                1.103587       0.767388

                         12       1    1ix6              1.245967       1.020534
                         12       1    1ix5y             1.245967       3.384727
                         12       1    1ix5z             1.245967       3.384727
                         12       1    1ix4y2            1.245967       5.862520
                         12       1    1ix4yz            1.245967      10.154182
                         12       1    1ix4z2            1.245967       5.862520
                         12       1    1ix3y3            1.245967       6.936627
                         12       1    1ix3y2z           1.245967      15.510769
                         12       1    1ix3yz2           1.245967      15.510769
                         12       1    1ix3z3            1.245967       6.936627
                         12       1    1ix2y4            1.245967       5.862520
                         12       1    1ix2y3z           1.245967      15.510769
                         12       1    1ix2y2z2          1.245967      20.024317
                         12       1    1ix2yz3           1.245967      15.510769
                         12       1    1ix2z4            1.245967       5.862520
                         12       1    1ixy5             1.245967       3.384727
                         12       1    1ixy4z            1.245967      10.154182
                         12       1    1ixy3z2           1.245967      15.510769
                         12       1    1ixy2z3           1.245967      15.510769
                         12       1    1ixyz4            1.245967      10.154182
                         12       1    1ixz5             1.245967       3.384727
                         12       1    1iy6              1.245967       1.020534
                         12       1    1iy5z             1.245967       3.384727
                         12       1    1iy4z2            1.245967       5.862520
                         12       1    1iy3z3            1.245967       6.936627
                         12       1    1iy2z4            1.245967       5.862520
                         12       1    1iyz5             1.245967       3.384727
                         12       1    1iz6              1.245967       1.020534

                         13       1    1fx3              1.255807       2.457712
                         13       1    1fx2y             1.255807       5.495611
                         13       1    1fx2z             1.255807       5.495611
                         13       1    1fxy2             1.255807       5.495611
                         13       1    1fxyz             1.255807       9.518677
                         13       1    1fxz2             1.255807       5.495611
                         13       1    1fy3              1.255807       2.457712
                         13       1    1fy2z             1.255807       5.495611
                         13       1    1fyz2             1.255807       5.495611
                         13       1    1fz3              1.255807       2.457712

                         14       1    1px               1.626163       2.617551
                         14       1    1py               1.626163       2.617551
                         14       1    1pz               1.626163       2.617551

                         15       1    1dx2              1.990505       5.490289
                         15       1    1dxy              1.990505       9.509459
                         15       1    1dxz              1.990505       9.509459
                         15       1    1dy2              1.990505       5.490289
                         15       1    1dyz              1.990505       9.509459
                         15       1    1dz2              1.990505       5.490289

                         16       1    1hx5              2.339630      11.750937
                         16       1    1hx4y             2.339630      35.252812
                         16       1    1hx4z             2.339630      35.252812
                         16       1    1hx3y2            2.339630      53.849559
                         16       1    1hx3yz            2.339630      93.270173
                         16       1    1hx3z2            2.339630      53.849559
                         16       1    1hx2y3            2.339630      53.849559
                         16       1    1hx2y2z           2.339630     120.411275
                         16       1    1hx2yz2           2.339630     120.411275
                         16       1    1hx2z3            2.339630      53.849559
                         16       1    1hxy4             2.339630      35.252812
                         16       1    1hxy3z            2.339630      93.270173
                         16       1    1hxy2z2           2.339630     120.411275
                         16       1    1hxyz3            2.339630      93.270173
                         16       1    1hxz4             2.339630      35.252812
                         16       1    1hy5              2.339630      11.750937
                         16       1    1hy4z             2.339630      35.252812
                         16       1    1hy3z2            2.339630      53.849559
                         16       1    1hy2z3            2.339630      53.849559
                         16       1    1hyz4             2.339630      35.252812
                         16       1    1hz5              2.339630      11.750937

                         17       1    1gx4              3.524920      35.570986
                         17       1    1gx3y             3.524920      94.111983
                         17       1    1gx3z             3.524920      94.111983
                         17       1    1gx2y2            3.524920     121.498047
                         17       1    1gx2yz            3.524920     210.440791
                         17       1    1gx2z2            3.524920     121.498047
                         17       1    1gxy3             3.524920      94.111983
                         17       1    1gxy2z            3.524920     210.440791
                         17       1    1gxyz2            3.524920     210.440791
                         17       1    1gxz3             3.524920      94.111983
                         17       1    1gy4              3.524920      35.570986
                         17       1    1gy3z             3.524920      94.111983
                         17       1    1gy2z2            3.524920     121.498047
                         17       1    1gyz3             3.524920      94.111983
                         17       1    1gz4              3.524920      35.570986

                         18       1    1px               4.160664       8.470195
                         18       1    1py               4.160664       8.470195
                         18       1    1pz               4.160664       8.470195

                         19       1    1s                4.500495       2.202193

                         20       1    1fx3              4.904034      52.686550
                         20       1    1fx2y             4.904034     117.810708
                         20       1    1fx2z             4.904034     117.810708
                         20       1    1fxy2             4.904034     117.810708
                         20       1    1fxyz             4.904034     204.054131
                         20       1    1fxz2             4.904034     117.810708
                         20       1    1fy3              4.904034      52.686550
                         20       1    1fy2z             4.904034     117.810708
                         20       1    1fyz2             4.904034     117.810708
                         20       1    1fz3              4.904034      52.686550

                         21       1    1dx2              5.244543      29.915609
                         21       1    1dxy              5.244543      51.815354
                         21       1    1dxz              5.244543      51.815354
                         21       1    1dy2              5.244543      29.915609
                         21       1    1dyz              5.244543      51.815354
                         21       1    1dz2              5.244543      29.915609

                         22       1    1dx2             10.138089      94.805303
                         22       1    1dxy             10.138089     164.207602
                         22       1    1dxz             10.138089     164.207602
                         22       1    1dy2             10.138089      94.805303
                         22       1    1dyz             10.138089     164.207602
                         22       1    1dz2             10.138089      94.805303

       Atomic covalent radius [Angstrom]:                                  0.770

       Atomic van der Waals radius [Angstrom]:                             1.700

     The atoms of this atomic kind are PAW atoms (GAPW):
       Hard Gaussian function radius:                                      1.512
       Rho0 radius:                                                        1.512
       Maximum GTO radius used for PAW projector construction:            24.566

     GAPW Soft Basis Set                                TZVPP-MOLOPT-GGA-ae_soft

       Number of orbital shell sets:                                           2
       Number of orbital shells:                                              11
       Number of primitive Cartesian functions:                                4
       Number of Cartesian basis functions:                                   36
       Number of spherical basis functions:                                   31
       Norm type:                                                              2

       Normalised Cartesian orbitals:

                        Set   Shell   Orbital            Exponent    Coefficient

                          1       1    1s                2.441624       0.446183
                                                         0.806764       0.003692
                                                         0.283960       0.027513
                                                         0.097098       0.019281

                          1       2    2s                2.441624      -0.104551
                                                         0.806764       0.362633
                                                         0.283960       0.094997
                                                         0.097098       0.029117

                          1       3    3s                2.441624      -0.199197
                                                         0.806764      -0.252838
                                                         0.283960       0.169545
                                                         0.097098       0.047046

                          1       4    4s                2.441624      -0.053941
                                                         0.806764       0.091223
                                                         0.283960      -0.341415
                                                         0.097098       0.188374

                          1       5    2px               2.441624       0.695625
                                                         0.806764       0.779023
                                                         0.283960       0.032186
                                                         0.097098       0.005087
                          1       5    2py               2.441624       0.695625
                                                         0.806764       0.779023
                                                         0.283960       0.032186
                                                         0.097098       0.005087
                          1       5    2pz               2.441624       0.695625
                                                         0.806764       0.779023
                                                         0.283960       0.032186
                                                         0.097098       0.005087

                          1       6    3px               2.441624       0.912249
                                                         0.806764      -0.188640
                                                         0.283960       0.294367
                                                         0.097098       0.008084
                          1       6    3py               2.441624       0.912249
                                                         0.806764      -0.188640
                                                         0.283960       0.294367
                                                         0.097098       0.008084
                          1       6    3pz               2.441624       0.912249
                                                         0.806764      -0.188640
                                                         0.283960       0.294367
                                                         0.097098       0.008084

                          1       7    4px               2.441624      -0.855991
                                                         0.806764      -0.070055
                                                         0.283960      -0.017243
                                                         0.097098       0.081068
                          1       7    4py               2.441624      -0.855991
                                                         0.806764      -0.070055
                                                         0.283960      -0.017243
                                                         0.097098       0.081068
                          1       7    4pz               2.441624      -0.855991
                                                         0.806764      -0.070055
                                                         0.283960      -0.017243
                                                         0.097098       0.081068

                          1       8    3dx2              2.441624       3.763414
                                                         0.806764       0.546922
                                                         0.283960       0.015501
                                                         0.097098       0.001415
                          1       8    3dxy              2.441624       6.518424
                                                         0.806764       0.947296
                                                         0.283960       0.026849
                                                         0.097098       0.002451
                          1       8    3dxz              2.441624       6.518424
                                                         0.806764       0.947296
                                                         0.283960       0.026849
                                                         0.097098       0.002451
                          1       8    3dy2              2.441624       3.763414
                                                         0.806764       0.546922
                                                         0.283960       0.015501
                                                         0.097098       0.001415
                          1       8    3dyz              2.441624       6.518424
                                                         0.806764       0.947296
                                                         0.283960       0.026849
                                                         0.097098       0.002451
                          1       8    3dz2              2.441624       3.763414
                                                         0.806764       0.546922
                                                         0.283960       0.015501
                                                         0.097098       0.001415

                          1       9    4dx2              2.441624      -2.510108
                                                         0.806764       0.323683
                                                         0.283960       0.139703
                                                         0.097098       0.001225
                          1       9    4dxy              2.441624      -4.347634
                                                         0.806764       0.560636
                                                         0.283960       0.241972
                                                         0.097098       0.002122
                          1       9    4dxz              2.441624      -4.347634
                                                         0.806764       0.560636
                                                         0.283960       0.241972
                                                         0.097098       0.002122
                          1       9    4dy2              2.441624      -2.510108
                                                         0.806764       0.323683
                                                         0.283960       0.139703
                                                         0.097098       0.001225
                          1       9    4dyz              2.441624      -4.347634
                                                         0.806764       0.560636
                                                         0.283960       0.241972
                                                         0.097098       0.002122
                          1       9    4dz2              2.441624      -2.510108
                                                         0.806764       0.323683
                                                         0.283960       0.139703
                                                         0.097098       0.001225

                          1      10    4fx3              2.441624       1.033755
                                                         0.806764       0.576468
                                                         0.283960       0.042127
                                                         0.097098      -0.000799
                          1      10    4fx2y             2.441624       2.311546
                                                         0.806764       1.289022
                                                         0.283960       0.094199
                                                         0.097098      -0.001786
                          1      10    4fx2z             2.441624       2.311546
                                                         0.806764       1.289022
                                                         0.283960       0.094199
                                                         0.097098      -0.001786
                          1      10    4fxy2             2.441624       2.311546
                                                         0.806764       1.289022
                                                         0.283960       0.094199
                                                         0.097098      -0.001786
                          1      10    4fxyz             2.441624       4.003716
                                                         0.806764       2.232651
                                                         0.283960       0.163158
                                                         0.097098      -0.003093
                          1      10    4fxz2             2.441624       2.311546
                                                         0.806764       1.289022
                                                         0.283960       0.094199
                                                         0.097098      -0.001786
                          1      10    4fy3              2.441624       1.033755
                                                         0.806764       0.576468
                                                         0.283960       0.042127
                                                         0.097098      -0.000799
                          1      10    4fy2z             2.441624       2.311546
                                                         0.806764       1.289022
                                                         0.283960       0.094199
                                                         0.097098      -0.001786
                          1      10    4fyz2             2.441624       2.311546
                                                         0.806764       1.289022
                                                         0.283960       0.094199
                                                         0.097098      -0.001786
                          1      10    4fz3              2.441624       1.033755
                                                         0.806764       0.576468
                                                         0.283960       0.042127
                                                         0.097098      -0.000799

                          2       1    1s         

     AE Potential information for                                            ALL

       Description:                                       All-electron potential
                                          Krack, Parrinello, PCCP 2, 2105 (2000)

       Gaussian exponent of the core charge distribution:               4.109048
       Electronic configuration (s p d ...):                           4   2   0

  2. Atomic kind: H                                     Number of atoms:       6

     Orbital Basis Set                                       TZVPP-MOLOPT-GGA-ae

       Number of orbital shell sets:                                           1
       Number of orbital shells:                                               6
       Number of primitive Cartesian functions:                                5
       Number of Cartesian basis functions:                                   15
       Number of spherical basis functions:                                   14
       Norm type:                                                              2

       Normalised Cartesian orbitals:

                        Set   Shell   Orbital            Exponent    Coefficient

                          1       1    1s               34.177738      -6.423540
                                                         4.947701      -0.270539
                                                         1.065127       0.831136
                                                         0.293823      -0.051765
                                                         0.091371      -0.049397

                          1       2    2s               34.177738       3.211471
                                                         4.947701       0.528758
                                                         1.065127       0.154529
                                                         0.293823       0.227881
                                                         0.091371      -0.041080

                          1       3    3s               34.177738      -1.131577
                                                         4.947701      -0.040048
                                                         1.065127       0.164523
                                                         0.293823       0.077306
                                                         0.091371       0.076395

                          1       4    2px              34.177738     -11.084238
                                                         4.947701       1.341091
                                                         1.065127       1.416453
                                                         0.293823      -0.007684
                                                         0.091371       0.008886
                          1       4    2py              34.177738     -11.084238
                                                         4.947701       1.341091
                                                         1.065127       1.416453
                                                         0.293823      -0.007684
                                                         0.091371       0.008886
                          1       4    2pz              34.177738     -11.084238
                                                         4.947701       1.341091
                                                         1.065127       1.416453
                                                         0.293823      -0.007684
                                                         0.091371       0.008886

                          1       5    3px              34.177738       9.643751
                                                         4.947701      -0.549928
                                                         1.065127       0.106963
                                                         0.293823       0.330130
                                                         0.091371      -0.013062
                          1       5    3py              34.177738       9.643751
                                                         4.947701      -0.549928
                                                         1.065127       0.106963
                                                         0.293823       0.330130
                                                         0.091371      -0.013062
                          1       5    3pz              34.177738       9.643751
                                                         4.947701      -0.549928
                                                         1.065127       0.106963
                                                         0.293823       0.330130
                                                         0.091371      -0.013062

                          1       6    3dx2             34.177738       9.702470
                                                         4.947701      -1.124420
                                                         1.065127       1.617163
                                                         0.293823       0.052231
                                                         0.091371      -0.004737
                          1       6    3dxy             34.177738      16.805171
                                                         4.947701      -1.947552
                                                         1.065127       2.801009
                                                         0.293823       0.090468
                                                         0.091371      -0.008204
                          1       6    3dxz             34.177738      16.805171
                                                         4.947701      -1.947552
                                                         1.065127       2.801009
                                                         0.293823       0.090468
                                                         0.091371      -0.008204
                          1       6    3dy2             34.177738       9.702470
                                                         4.947701      -1.124420
                                                         1.065127       1.617163
                                                         0.293823       0.052231
                                                         0.091371      -0.004737
                          1       6    3dyz             34.177738      16.805171
                                                         4.947701      -1.947552
                                                         1.065127       2.801009
                                                         0.293823       0.090468
                                                         0.091371      -0.008204
                          1       6    3dz2             34.177738       9.702470
                                                         4.947701      -1.124420
                                                         1.065127       1.617163
                                                         0.293823       0.052231
                                                         0.091371      -0.004737

     RI Auxiliary Basis Set                                    aug-cc-pV5Z-OPTRI

       Number of orbital shell sets:                                          17
       Number of orbital shells:                                              17
       Number of primitive Cartesian functions:                               17
       Number of Cartesian basis functions:                                  115
       Number of spherical basis functions:                                   81
       Norm type:                                                              2

       Normalised Cartesian orbitals:

                        Set   Shell   Orbital            Exponent    Coefficient

                          1       1    1s                0.306678       0.293712

                          2       1    1fx3              0.582788       0.436871
                          2       1    1fx2y             0.582788       0.976873
                          2       1    1fx2z             0.582788       0.976873
                          2       1    1fxy2             0.582788       0.976873
                          2       1    1fxyz             0.582788       1.691994
                          2       1    1fxz2             0.582788       0.976873
                          2       1    1fy3              0.582788       0.436871
                          2       1    1fy2z             0.582788       0.976873
                          2       1    1fyz2             0.582788       0.976873
                          2       1    1fz3              0.582788       0.436871

                          3       1    1dx2              0.740674       0.973323
                          3       1    1dxy              0.740674       1.685844
                          3       1    1dxz              0.740674       1.685844
                          3       1    1dy2              0.740674       0.973323
                          3       1    1dyz              0.740674       1.685844
                          3       1    1dz2              0.740674       0.973323

                          4       1    1s                0.854346       0.633338

                          5       1    1px               0.977704       1.385796
                          5       1    1py               0.977704       1.385796
                          5       1    1pz               0.977704       1.385796

                          6       1    1gx4              1.260673       2.104225
                          6       1    1gx3y             1.260673       5.567256
                          6       1    1gx3z             1.260673       5.567256
                          6       1    1gx2y2            1.260673       7.187297
                          6       1    1gx2yz            1.260673      12.448763
                          6       1    1gx2z2            1.260673       7.187297
                          6       1    1gxy3             1.260673       5.567256
                          6       1    1gxy2z            1.260673      12.448763
                          6       1    1gxyz2            1.260673      12.448763
                          6       1    1gxz3             1.260673       5.567256
                          6       1    1gy4              1.260673       2.104225
                          6       1    1gy3z             1.260673       5.567256
                          6       1    1gy2z2            1.260673       7.187297
                          6       1    1gyz3             1.260673       5.567256
                          6       1    1gz4              1.260673       2.104225

                          7       1    1fx3              1.313322       2.718252
                          7       1    1fx2y             1.313322       6.078196
                          7       1    1fx2z             1.313322       6.078196
                          7       1    1fxy2             1.313322       6.078196
                          7       1    1fxyz             1.313322      10.527744
                          7       1    1fxz2             1.313322       6.078196
                          7       1    1fy3              1.313322       2.718252
                          7       1    1fy2z             1.313322       6.078196
                          7       1    1fyz2             1.313322       6.078196
                          7       1    1fz3              1.313322       2.718252

                          8       1    1dx2              1.868623       4.915553
                          8       1    1dxy              1.868623       8.513988
                          8       1    1dxz              1.868623       8.513988
                          8       1    1dy2              1.868623       4.915553
                          8       1    1dyz              1.868623       8.513988
                          8       1    1dz2              1.868623       4.915553

                          9       1    1s                2.242991       1.306263

                         10       1    1hx5              2.510965      14.785170
                         10       1    1hx4y             2.510965      44.355509
                         10       1    1hx4z             2.510965      44.355509
                         10       1    1hx3y2            2.510965      67.754159
                         10       1    1hx3yz            2.510965     117.353645
                         10       1    1hx3z2            2.510965      67.754159
                         10       1    1hx2y3            2.510965      67.754159
                         10       1    1hx2y2z           2.510965     151.502904
                         10       1    1hx2yz2           2.510965     151.502904
                         10       1    1hx2z3            2.510965      67.754159
                         10       1    1hxy4             2.510965      44.355509
                         10       1    1hxy3z            2.510965     117.353645
                         10       1    1hxy2z2           2.510965     151.502904
                         10       1    1hxyz3            2.510965     117.353645
                         10       1    1hxz4             2.510965      44.355509
                         10       1    1hy5              2.510965      14.785170
                         10       1    1hy4z             2.510965      44.355509
                         10       1    1hy3z2            2.510965      67.754159
                         10       1    1hy2z3            2.510965      67.754159
                         10       1    1hyz4             2.510965      44.355509
                         10       1    1hz5              2.510965      14.785170

                         11       1    1px               2.624145       4.760744
                         11       1    1py               2.624145       4.760744
                         11       1    1pz               2.624145       4.760744

                         12       1    1gx4              3.525409      35.584558
                         12       1    1gx3y             3.525409      94.147891
                         12       1    1gx3z             3.525409      94.147891
                         12       1    1gx2y2            3.525409     121.544404
                         12       1    1gx2yz            3.525409     210.521084
                         12       1    1gx2z2            3.525409     121.544404
                         12       1    1gxy3             3.525409      94.147891
                         12       1    1gxy2z            3.525409     210.521084
                         12       1    1gxyz2            3.525409     210.521084
                         12       1    1gxz3             3.525409      94.147891
                         12       1    1gy4              3.525409      35.584558
                         12       1    1gy3z             3.525409      94.147891
                         12       1    1gy2z2            3.525409     121.544404
                         12       1    1gyz3             3.525409      94.147891
                         12       1    1gz4              3.525409      35.584558

                         13       1    1fx3              3.758818      28.961421
                         13       1    1fx2y             3.758818      64.759707
                         13       1    1fx2z             3.758818      64.759707
                         13       1    1fxy2             3.758818      64.759707
                         13       1    1fxyz             3.758818     112.167102
                         13       1    1fxz2             3.758818      64.759707
                         13       1    1fy3              3.758818      28.961421
                         13       1    1fy2z             3.758818      64.759707
                         13       1    1fyz2             3.758818      64.759707
                         13       1    1fz3              3.758818      28.961421

                         14       1    1dx2              4.580832      23.608158
                         14       1    1dxy              4.580832      40.890528
                         14       1    1dxz              4.580832      40.890528
                         14       1    1dy2              4.580832      23.608158
                         14       1    1dyz              4.580832      40.890528
                         14       1    1dz2              4.580832      23.608158

                         15       1    1px               6.794656      15.636856
                         15       1    1py               6.794656      15.636856
                         15       1    1pz               6.794656      15.636856

                         16       1    1s                7.257089       3.151243

                         17       1    1px              22.632735      70.365761
                         17       1    1py              22.632735      70.365761
                         17       1    1pz              22.632735      70.365761

       Atomic covalent radius [Angstrom]:                                  0.320

       Atomic van der Waals radius [Angstrom]:                             1.090

     The atoms of this atomic kind are PAW atoms (GAPW):
       Hard Gaussian function radius:                                      1.200
       Rho0 radius:                                                        1.200
       Maximum GTO radius used for PAW projector construction:            24.566

     GAPW Soft Basis Set                                TZVPP-MOLOPT-GGA-ae_soft

[...]
                                MAXIMUM       AVERAGE  MAXIMUM  AVERAGE  MAXIMUM
 CP2K                                 1  1.0    0.038    0.056  370.694  370.694
 qs_energies                          1  2.0    0.001    0.001  368.243  368.243
 qs_energies_properties               1  3.0    0.000    0.000  241.669  241.669
 tddfpt                               1  4.0    0.000    0.000  241.669  241.669
 tddfpt_energies                      1  5.0    0.000    0.001  241.619  241.619
 tddfpt_davidson_solver               1  6.0    0.002    0.004  239.201  239.201
 tddfpt_compute_Aop_evects           10  7.0    0.000    0.000  235.556  235.556
 fhxc_kernel                         10  8.0    0.009    0.010  199.808  199.808
 scf_env_do_scf                       1  3.0    0.000    0.000  125.235  125.240
 scf_env_do_scf_inner_loop           53  4.0    0.001    0.004  125.235  125.239
 qs_ks_update_qs_env                 53  5.0    0.000    0.000  107.796  107.819
 rebuild_ks_matrix                   53  6.0    0.000    0.000  107.791  107.813
 qs_ks_build_kohn_sham_matrix        53  7.0    0.008    0.009  107.791  107.813
 integrate_four_center              453  9.9   10.594   19.440   97.846   98.002
 tddfpt_apply_coulomb               200  9.0    0.004    0.005   84.504   85.510
 pw_poisson_solve                   253  9.6    2.159    2.620   82.587   83.551
 fft_wrap_pw1pw2                   5127 11.2    0.083    0.116   82.046   83.324
 fft_wrap_pw1pw2_250               3603 12.3    2.485    2.695   77.723   79.033
 fft3d_ps                          5127 13.2   23.805   25.691   71.328   73.218
 hfx_ks_matrix                       53  8.0    0.002    0.002   68.651   68.685
 ps_wavelet_solve                   253 10.6   25.839   37.606   55.288   55.583
 integrate_four_center_main         453 10.9    0.290    0.817   47.413   53.894
 integrate_four_center_bin        45529 11.9   47.123   53.538   47.123   53.538
 mp_alltoall_z22v                  5127 15.2   41.638   50.964   41.638   50.964
 qs_rho_update_rho_low              255  8.1    0.003    0.003   50.870   50.878
 calculate_rho_elec                 255  9.1    0.556    0.596   42.823   42.830
 mp_alltoall_d54                    253 11.6   13.873   34.656   13.873   34.656
 tddfpt_apply_hfx                    10  8.0    0.004    0.005   34.118   34.118
 xc_pw_derive                      1521 11.0    0.015    0.020   32.487   33.801
 tddfpt_apply_xc_analytic           200  9.0    0.138    0.175   31.543   31.707
 tddft_hfx_matrix                   400  9.0    0.011    0.012   29.210   29.338
 integrate_v_rspace                 253  9.0    0.006    0.007   28.392   28.747
 density_rs2pw                      255 10.1    0.015    0.019   27.120   28.674
 x_to_yz                           2081 13.8    2.431    2.778   26.164   28.214
 mp_sync                           2377 11.6   15.590   27.605   15.590   27.605
 yz_to_x                           2030 14.6    1.850    2.239   19.580   25.023
 potential_pw2rs                    253 10.0    0.053    0.071   23.701   24.090
 xc_pw_divergence                   253 10.8    0.008    0.010   21.795   22.864
 transfer_pw2rs                    1266 10.9    0.017    0.022   21.788   22.143
 prepare_gapw_den                   254  8.8    0.005    0.007   21.423   21.590
 transfer_rs2pw                    1275 11.1    0.033    0.057   20.013   21.585
 xc_calc_2nd_deriv_analytical       600 10.1    0.968    1.135   18.525   18.612
 calc_screening_functions             1 10.0   16.710   18.130   17.142   18.559
 mp_alltoall_d45                    254 11.6   15.427   17.961   15.427   17.961
 mp_waitany                       64050 12.9   14.345   17.122   14.345   17.122
 grid_collocate_task_list           255 10.1   14.572   16.836   14.572   16.836
 mp_alltoall_d11v                 17208 11.7   10.924   14.164   10.924   14.164
 mp_sum_dm                        11535 10.3   13.306   13.914   13.306   13.914
 integrate_vhg0_rspace              253  9.6    0.623    0.722   13.090   13.269
 transfer_pw2rs_250                 507 11.8    3.510    4.075   11.545   12.153
 transfer_rs2pw_250                 510 12.0    3.804    4.270    9.883   11.547
 put_rho0_on_grid                   254  9.8    0.593    0.754   11.301   11.466
 mp_waitall_1                    541174 13.2    7.852   10.187    7.852   10.187
 cp_dbcsr_sm_fm_multiply           1246  8.6    0.027    0.030    9.365    9.518
 qs_vxc_create                       53  8.0    0.001    0.001    9.085    9.086
 xc_vxc_pw_create                    53  9.0    0.148    0.173    9.084    9.085
 calculate_rho_atom                 762  9.8    2.195    8.888    2.195    8.888
 gaVxcgb_GC                         253  9.8    0.390    8.793    0.390    8.793
 calculate_xc_2nd_deriv_atom        200  9.0    0.090    1.117    0.431    8.279
 calculate_rho_atom_coeff           255  9.1    0.273    0.453    8.045    8.046
 mp_sum_dv                        28865  8.9    7.293    7.710    7.293    7.710
 mp_sum_d                          6402  7.6    4.482    7.056    4.482    7.056
 dbcsr_complete_redistribute       4076 10.5    0.175    0.243    6.153    6.307
 transfer_pw2rs_30                  253 12.0    2.322    2.552    5.284    5.683
 sum_up_and_integrate                53  8.0    0.001    0.001    5.606    5.630
 transfer_rs2pw_30                  255 12.1    2.410    2.510    5.514    5.615
 rs_gather_matrices                 253 10.0    0.006    0.018    4.355    4.709
 xc_rho_set_and_dset_create          54 10.0    0.123    0.154    4.202    4.519
 grid_integrate_task_list           253 10.0    0.330    4.496    0.330    4.496
 copy_dbcsr_to_fm                  1321  9.4    0.018    0.020    4.190    4.325
 mp_sendrecv_dv                  109650 13.1    4.140    4.290    4.140    4.290
 mp_isendrecv_dv                 303580 12.3    1.869    4.236    1.869    4.236
 copy_fm_to_dbcsr                  2753  9.6    0.013    0.015    4.076    4.231
 transfer_pw2rs_90                  253 12.0    0.753    0.851    3.280    4.032
 gspace_mixing                       52  5.0    0.113    0.122    4.001    4.001
 pw_scatter_p                      2587 12.9    3.298    3.889    3.298    3.889
 dbcsr_multiply_generic            1699 10.4    0.076    0.087    3.578    3.709
 transfer_rs2pw_90                  255 12.1    0.764    0.954    2.929    3.497
 cp_fm_syevd                        105  7.3    0.001    0.001    3.407    3.413
 cp_fm_redistribute_end             105  8.3    1.684    3.275    1.694    3.281
 pw_gather_p                       2540 13.5    2.794    3.255    2.794    3.255
 cp_fm_syevd_base                   105  8.3    1.579    3.168    1.579    3.168
 cp2k_distribution_to_z_slices      253 10.6    1.184    1.293    2.579    3.157
 integrate_four_center_getP         453 10.9    0.210    0.234    3.029    3.119
 mp_alltoall_i11v                 13550 11.5    2.995    2.997    2.995    2.997
 rs_grid_zero                      1268 12.0    2.767    2.985    2.767    2.985
 fft_wrap_pw1pw2_90                 508 12.1    0.077    0.130    2.642    2.953
 broyden_mixing                      52  6.0    2.770    2.867    2.864    2.909
 qs_scf_new_mos                      53  5.0    0.001    0.001    2.818    2.829
 pw_derive                         2280 11.9    2.499    2.710    2.499    2.710
 integrate_four_center_dist_KS      453 10.9    0.191    0.224    2.677    2.683
 cp_dbcsr_sm_fm_multiply_core      1246  9.6    0.003    0.004    2.554    2.681
 mp_irecv_dm3                      9150 12.9    0.801    2.306    0.801    2.306
 eigensolver_symm                    53  6.0    0.002    0.002    2.301    2.304
 multiply_cannon                   1699 11.4    0.212    0.219    2.143    2.270
 create_qs_kind_set                   1  2.0    0.000    0.000    2.129    2.130
 read_qs_kind                         3  3.0    1.158    1.206    2.129    2.130
 dbcsr_desymmetrize_deep           1322 10.4    0.037    0.045    1.989    2.122
 tddfpt_orthonormalize_psi1_psi      11  6.9    0.029    0.032    2.066    2.066
 mp_sum_l                          6435 10.7    1.642    2.047    1.642    2.047
 calculate_vxc_atom                  53  8.0    0.031    0.163    2.039    2.039
 Vh_1c_gg_integrals                 253  9.6    0.074    1.135    1.279    1.880
 integrate_four_center_load         453 10.9    0.001    0.002    1.448    1.854
 pw_copy                           3400 11.0    1.702    1.854    1.702    1.854
 hfx_load_balance                     1 11.0    0.000    0.000    1.447    1.853
 pw_copy_to_array                  2540 13.5    1.191    1.852    1.191    1.852
 tddfpt_print_nto_analysis            1  6.0    0.002    0.003    1.837    1.838
 hfx_load_balance_range               1 12.0    0.000    0.000    1.421    1.828
 multiply_cannon_loop              1699 12.4    0.393    0.412    1.642    1.767
 cp_dbcsr_plus_fm_fm_t              253  8.6    0.004    0.004    1.732    1.747
 transfer_pw2rs_10                  253 12.0    0.607    0.709    1.662    1.745
 mp_isend_dv                     174963 13.9    1.009    1.676    1.009    1.676
 transfer_rs2pw_10                  255 12.1    0.618    0.665    1.654    1.676
 tddfpt_apply_energy_diff            10  8.0    0.001    0.001    1.630    1.630
 parallel_gemm_fm                  1781  8.3    0.002    0.003    1.569    1.588
 parallel_gemm_fm_gemm             1781  9.3    0.002    0.003    1.567    1.585
 cp_fm_gemm                        1781 10.3    1.564    1.583    1.564    1.583
 mp_isend_dm3                      9150 12.9    0.577    1.541    0.577    1.541
 pw_poisson_set                     254 10.6    0.006    0.008    1.503    1.531
 tddfpt_compute_residual_vects        9  7.0    0.001    0.001    1.374    1.375
 calculate_rho0_atom                762  9.8    1.194    1.234    1.194    1.234
 cp_fm_geeig                         20  7.0    0.001    0.001    1.219    1.220
 update_ks_atom                     253  8.8    0.167    0.276    1.109    1.219
 pw_integral_ab_c1d_c1d_gs          253 10.6    0.823    0.831    1.069    1.171
 mp_alltoall_i22                   5398 11.5    0.882    1.131    0.882    1.131
 mp_alltoall_z11v                  1016 15.1    1.066    1.112    1.066    1.112
 fft_wrap_pw1pw2_30                 508 12.1    0.014    0.016    1.041    1.084
 pw_axpy                           2738 11.0    0.942    1.071    0.942    1.071
 make_m2s                          3398 11.4    0.067    0.071    0.975    1.048
 xc_functional_eval                 560 10.9    0.001    0.003    0.613    1.011
 pbe_lda_eval                       560 11.9    0.612    1.009    0.612    1.009
 hybrid_alltoall_any               4720 13.5    0.044    0.056    0.959    1.008
 parser_read_line                248721  4.0    0.083    0.093    0.971    0.984
 mp_bcast_dm                       7590  9.8    0.942    0.966    0.942    0.966
 pw_copy_from_array                2587 12.9    0.769    0.963    0.769    0.963
 pw_zero                           2924 10.6    0.836    0.961    0.836    0.961
 qs_energies_init_hamiltonians        1  3.0    0.000    0.000    0.939    0.939
 build_core_hamiltonian_matrix        1  4.0    0.000    0.000    0.928    0.928
 overlap_condnum                      1  5.0    0.000    0.000    0.922    0.926
 parser_read_line_low               267  5.0    0.061    0.399    0.888    0.904
 mp_max_i                           724  5.2    0.334    0.898    0.334    0.898
 make_images                       3398 12.4    0.193    0.207    0.807    0.874
 broadcast_input_information        267  6.0    0.166    0.200    0.826    0.862
 powell_optimize                 313929 11.0    0.785    0.815    0.785    0.815
 arnoldi_conjugate_gradient           5  6.0    0.018    0.021    0.786    0.786
 yz_to_xz                           506 14.0    0.045    0.051    0.706    0.747
 calc_pair_dist_radii                 1 10.0    0.375    0.386    0.728    0.744
 pw_poisson_rebuild                 253 10.6    0.000    0.000    0.611    0.635
 ps_wavelet_create                    1 10.0    0.000    0.000    0.611    0.635
 RS_z_slice_distribution              1 11.0    0.499    0.596    0.611    0.635
 fft_wrap_pw1pw2_10                 508 12.1    0.005    0.005    0.556    0.565
 offload_free_buffer                261 10.4    0.355    0.538    0.355    0.538
 cp_fm_trace_a1b1t1_aa            20310  8.0    0.096    0.102    0.516    0.521
 multiply_cannon_metrocomm3       61164 13.4    0.100    0.104    0.295    0.484
 dbcsr_sym_matrix_vector_mult      2662  7.0    0.042    0.046    0.415    0.479
 mp_bcast_am_src                    267  7.0    0.328    0.411    0.365    0.471
 xz_to_yz                           510 14.1    0.030    0.035    0.436    0.444
 mp_rank_compare                   5127 14.2    0.419    0.437    0.419    0.437
 mp_bcast_i_src                    1068  7.0    0.283    0.432    0.283    0.432
 multiply_cannon_metrocomm4       57766 13.4    0.171    0.179    0.352    0.419
 dbcsr_finalize                   11969 11.4    0.046    0.091    0.214    0.371
 multiply_cannon_metrocomm1       61164 13.4    0.071    0.074    0.205    0.368
 make_images_sizes                 3398 13.4    0.004    0.004    0.337    0.354
 mp_alltoall_i44                   3398 14.4    0.333    0.350    0.333    0.350
 init_scf_run                         1  3.0    0.000    0.000    0.343    0.343
 prepare_dr1dr                      600 11.1    0.299    0.334    0.299    0.334
 calculate_dm_sparse                 53  6.0    0.000    0.001    0.322    0.331
 multiply_cannon_metrocomm2       56067 13.4    0.167    0.177    0.299    0.318
 scf_env_initial_rho_setup            1  4.0    0.000    0.000    0.288    0.288
 mp_cart_sub                       2646 11.4    0.285    0.287    0.285    0.287
 tddfpt_construct_ground_state_       1  6.0    0.000    0.000    0.283    0.285
 scale_and_distribute               506 11.6    0.261    0.283    0.261    0.283
 multiply_cannon_multrec          61164 13.4    0.090    0.267    0.097    0.275
 dbcsr_add_d                       4031  7.0    0.004    0.004    0.036    0.243
 dbcsr_add_anytype                 4031  8.0    0.005    0.032    0.032    0.239
 qs_init_subsys                       1  2.0    0.005    0.006    0.220    0.221
 dbcsr_create_new                 45424 11.4    0.151    0.169    0.197    0.217
 rs_scatter_matrices                255 10.1    0.003    0.006    0.208    0.217
 mp_cart_create                    2085 10.8    0.194    0.209    0.195    0.211
 dbcsr_merge_all                  10072 12.4    0.093    0.151    0.122    0.208
 mp_allgather_i34                  1699 12.4    0.176    0.207    0.176    0.207
 qs_env_setup                         1  3.0    0.000    0.000    0.199    0.203
 qs_env_rebuild_pw_env                2  3.5    0.000    0.000    0.198    0.202
 pw_env_rebuild                       1  5.0    0.001    0.001    0.198    0.202
 make_images_data                  3398 13.4    0.043    0.057    0.107    0.194
 dbcsr_col_vec_to_rep_row          2662  8.0    0.019    0.021    0.137    0.191
 xc_2nd_deriv_of_r                  400 10.0    0.002    0.033    0.012    0.183
 tddfpt_compute_ritz_vects           10  7.0    0.009    0.009    0.181    0.181
 pw_grid_setup                        4  6.0    0.000    0.000    0.175    0.180
 pw_grid_setup_internal               4  7.0    0.003    0.005    0.175    0.179
 mp_irecv_dv                     175531 13.9    0.123    0.173    0.123    0.173
 dbcsr_rep_row_to_rep_col_vec      2662  8.0    0.013    0.016    0.073    0.172
 cp_fm_redistribute_start           105  8.3    0.106    0.114    0.133    0.149
 rs_grid_create                     259 10.5    0.001    0.002    0.012    0.149
 offload_create_buffer              261 11.4    0.011    0.147    0.011    0.147
 cp_fm_cholesky_decompose            20  8.0    0.141    0.141    0.141    0.141
 dbcsr_iterator_start             60327 10.5    0.072    0.100    0.088    0.128
 pw_scale                           612  9.5    0.110    0.128    0.110    0.128
 cp_fm_triangular_multiply           60  8.0    0.127    0.128    0.127    0.128
 dbcsr_special_finalize            8495 13.4    0.033    0.035    0.096    0.125
 mp_bcast_dv                       2767  9.0    0.063    0.123    0.063    0.123
 tddfpt_orthogonalize_psi1_psi0      11  6.9    0.000    0.001    0.106    0.116
 cube_transpose_2                   510 14.1    0.010    0.011    0.102    0.113
 cp_fm_triangular_invert             20  8.0    0.110    0.110    0.110    0.110
 dbcsr_copy                       14792  8.5    0.050    0.056    0.097    0.107
 create_kernel_env                    1  6.0    0.000    0.000    0.092    0.103
 xc_prep_2nd_deriv                    1  7.0    0.000    0.000    0.092    0.103
 mp_isend_iv                     123914 14.4    0.092    0.102    0.092    0.102
 cube_transpose_1                   506 14.0    0.008    0.010    0.091    0.100
 copy_fm_to_dbcsr_bc               2753 10.6    0.031    0.035    0.091    0.099
 pw_grid_sort                         4  8.0    0.044    0.055    0.068    0.086
 dbcsr_iterator_stop              60327 10.5    0.053    0.069    0.065    0.084
 dbcsr_merge_single_wm             8495 14.4    0.042    0.051    0.051    0.082
 dbcsr_work_create                19889 12.5    0.038    0.053    0.057    0.082
 dbcsr_destroy                    40051 10.9    0.051    0.054    0.074    0.080
 cp_fm_symm                          53  7.0    0.075    0.079    0.075    0.079
 dbcsr_make_images_dense            906 11.8    0.017    0.018    0.046    0.078
 mp_bcast_iv_src                    267  7.0    0.012    0.078    0.012    0.078
 dbcsr_data_new                  137310 12.6    0.061    0.075    0.061    0.075
 dbcsr_data_release              220820 12.4    0.059    0.075    0.059    0.075
 dbcsr_work_destroy_all           19889 13.5    0.034    0.049    0.046    0.068
 mp_bcast_iv                        292  7.5    0.037    0.067    0.037    0.067
 tddfpt_is_nonorthogonal_psi1_p       9  7.0    0.001    0.001    0.067    0.067
 mp_cart_rank                    219060 11.1    0.058    0.064    0.058    0.064
 cp_fm_power                          1  6.0    0.000    0.001    0.064    0.064
 mp_irecv_iv                     123914 14.4    0.050    0.059    0.050    0.059
 scf_post_calculation_gpw             1  3.0    0.000    0.000    0.056    0.056
 write_available_results              1  4.0    0.000    0.000    0.056    0.056
 write_mo_free_results                1  5.0    0.003    0.004    0.056    0.056
 setup_buffer_matrices             3398 12.4    0.013    0.015    0.044    0.051
 dbcsr_make_dense_low              2265 12.8    0.011    0.012    0.018    0.049
 cp_fm_write_unformatted             43  7.5    0.035    0.040    0.036    0.046
 mixing_init                          1  5.0    0.041    0.044    0.045    0.045
 create_fast_row_vec_access        5324  8.0    0.022    0.026    0.034    0.040
 create_fast_col_vec_access        5324  8.0    0.022    0.025    0.033    0.037
 -------------------------------------------------------------------------------

 The number of warnings for this run is : 1
 
 -------------------------------------------------------------------------------
  **** **** ******  **  PROGRAM ENDED AT                 2025-04-02 23:41:49.249
 ***** ** ***  *** **   PROGRAM RAN ON                              i08r03c04s05
 **    ****   ******    PROGRAM RAN BY                                   di38fab
 ***** **    ** ** **   PROGRAM PROCESS ID                               1833589
  **** **  *******  **  PROGRAM STOPPED IN /hppfs/scratch/04/di38fab/07_MOL_non_
                                           aug/05_MOL_non_aug/05_MOL/aUKBqsEOTmq
                                           69kFe5R_nOg/5k_set_final_qzvp/PAZROZ/
                                           TZVPP/TDDFT
