 DBCSR| CPU Multiplication driver                                           BLAS (U)
 DBCSR| Multrec recursion limit                                              512 (U)
 DBCSR| Multiplication stack size                                           1000 (D)
 DBCSR| Maximum elements for images                                    UNLIMITED (U)
 DBCSR| Multiplicative factor virtual images                                   1 (U)
 DBCSR| Use multiplication densification                                       T (D)
 DBCSR| Multiplication size stacks                                             3 (U)
 DBCSR| Use memory pool for CPU allocation                                     F (U)
 DBCSR| Number of 3D layers                                               SINGLE (U)
 DBCSR| Use MPI memory allocation                                              F (U)
 DBCSR| Use RMA algorithm                                                      F (U)
 DBCSR| Use Communication thread                                               T (U)
 DBCSR| Communication thread load                                             75 (D)
 DBCSR| MPI: My process id                                                     0
 DBCSR| MPI: Number of processes                                             216
 DBCSR| OMP: Current number of threads                                         4
 DBCSR| OMP: Max number of threads                                             4
 DBCSR| Split modifier for TAS multiplication algorithm                  1.0E+00 (U)


  **** **** ******  **  PROGRAM STARTED AT               2025-04-02 20:25:09.276
 ***** ** ***  *** **   PROGRAM STARTED ON                          i06r08c04s06
 **    ****   ******    PROGRAM STARTED BY                               di38fab
 ***** **    ** ** **   PROGRAM PROCESS ID                                104609
  **** **  *******  **  PROGRAM STARTED IN /hppfs/scratch/04/di38fab/07_MOL_non_
                                           aug/05_MOL_non_aug/05_MOL/aUKBqsEOTmq
                                           69kFe5R_nOg/5k_set_final_qzvp/WAQBOG/
                                           cc-pVDZ/TDDFT

 CP2K| version string:                 CP2K version 2025.1 (Development Version)
 CP2K| source code revision number:                                  git:d2e611a
 CP2K| cp2kflags: omp libint fftw3 libxc parallel scalapack max_contr=4         
 CP2K| is freely available from                            https://www.cp2k.org/
 CP2K| Program compiled at                       Thu 06 Mar 2025 05:09:20 PM CET
 CP2K| Program compiled on                                               login02
 CP2K| Program compiled for                                        Supermuc-foss
 CP2K| Data directory path                  /hppfs/work/pn36zo/di38fab/cp2k/data
 CP2K| Input file name                                                    GW.inp

 GLOBAL| Force Environment number                                              1
 GLOBAL| Basis set file name            /hppfs/scratch/04/di38fab/04_TMD/BASIS_A
 GLOBAL| Potential file name            /hppfs/work/pn36zo/di38fab/cp2k/data/ALL
 GLOBAL| MM Potential file name                                     MM_POTENTIAL
 GLOBAL| Coordinate file name                                      __STD_INPUT__
 GLOBAL| Method name                                                        CP2K
 GLOBAL| Project name                                                       MoS2
 GLOBAL| Run type                                                         ENERGY
 GLOBAL| FFT library                                                       FFTW3
 GLOBAL| Diagonalization library                                       ScaLAPACK
 GLOBAL| DGEMM library                                                      BLAS
 GLOBAL| Orthonormality check for eigenvectors                          DISABLED
 GLOBAL| Matrix multiplication library                                 ScaLAPACK
 GLOBAL| All-to-all communication in single precision                          F
 GLOBAL| FFTs using library dependent lengths                                  F
 GLOBAL| Grid backend                                                       AUTO
 GLOBAL| Global print level                                               MEDIUM
 GLOBAL| MPI I/O enabled                                                       T
 GLOBAL| Total number of message passing processes                           216
 GLOBAL| Number of threads for this process                                    4
 GLOBAL| This output is from process                                           0
 GLOBAL| OpenMP stack size per thread (OMP_STACKSIZE)                    default
 GLOBAL| CPU model name             Intel(R) Xeon(R) Platinum 8174 CPU @ 3.10GHz

 MEMORY| system memory details [Kb]
 MEMORY|                        rank 0           min           max       average
 MEMORY| MemTotal             98436708      98436648      98436708      98436668
 MEMORY| MemFree              83959624      83833496      84635072      84010106
 MEMORY| Buffers                     0             0             0             0
 MEMORY| Cached                2383320       2379820       2420976       2398504
 MEMORY| Slab                  1221088       1105924       1264108       1228722
 MEMORY| SReclaimable           278912        253616        283104        272996
 MEMORY| MemLikelyFree        86621856      86506060      87269768      86681607


 *** Fundamental physical constants (SI units) ***

 *** Literature: B. J. Mohr and B. N. Taylor,
 ***             CODATA recommended values of the fundamental physical
 ***             constants: 2006, Web Version 5.1
 ***             http://physics.nist.gov/constants

 Speed of light in vacuum [m/s]                             2.99792458000000E+08
 Magnetic constant or permeability of vacuum [N/A**2]       1.25663706143592E-06
 Electric constant or permittivity of vacuum [F/m]          8.85418781762039E-12
 Planck constant (h) [J*s]                                  6.62606896000000E-34
 Planck constant (h-bar) [J*s]                              1.05457162825177E-34
 Elementary charge [C]                                      1.60217648700000E-19
 Electron mass [kg]                                         9.10938215000000E-31
 Electron g factor [ ]                                     -2.00231930436220E+00
 Proton mass [kg]                                           1.67262163700000E-27
 Fine-structure constant                                    7.29735253760000E-03
 Rydberg constant [1/m]                                     1.09737315685270E+07
 Avogadro constant [1/mol]                                  6.02214179000000E+23
 Boltzmann constant [J/K]                                   1.38065040000000E-23
 Atomic mass unit [kg]                                      1.66053878200000E-27
 Bohr radius [m]                                            5.29177208590000E-11

 *** Conversion factors ***

 [u] -> [a.u.]                                              1.82288848426455E+03
 [Angstrom] -> [Bohr] = [a.u.]                              1.88972613288564E+00
 [a.u.] = [Bohr] -> [Angstrom]                              5.29177208590000E-01
 [a.u.] -> [s]                                              2.41888432650478E-17
 [a.u.] -> [fs]                                             2.41888432650478E-02
 [a.u.] -> [J]                                              4.35974393937059E-18
 [a.u.] -> [N]                                              8.23872205491840E-08
 [a.u.] -> [K]                                              3.15774647902944E+05
 [a.u.] -> [kJ/mol]                                         2.62549961709828E+03
 [a.u.] -> [kcal/mol]                                       6.27509468713739E+02
 [a.u.] -> [Pa]                                             2.94210107994716E+13
 [a.u.] -> [bar]                                            2.94210107994716E+08
 [a.u.] -> [atm]                                            2.90362800883016E+08
 [a.u.] -> [eV]                                             2.72113838565563E+01
 [a.u.] -> [Hz]                                             6.57968392072181E+15
 [a.u.] -> [1/cm] (wave numbers)                            2.19474631370540E+05
 [a.u./Bohr**2] -> [1/cm]                                   5.14048714338585E+03
 

 CELL_TOP| Volume [angstrom^3]:                                     27000.000000
 CELL_TOP| Vector a [angstrom    30.000     0.000     0.000   |a| =    30.000000
 CELL_TOP| Vector b [angstrom     0.000    30.000     0.000   |b| =    30.000000
 CELL_TOP| Vector c [angstrom     0.000     0.000    30.000   |c| =    30.000000
 CELL_TOP| Angle (b,c), alpha [degree]:                                90.000000
 CELL_TOP| Angle (a,c), beta  [degree]:                                90.000000
 CELL_TOP| Angle (a,b), gamma [degree]:                                90.000000
 CELL_TOP| Numerically orthorhombic:                                         YES
 CELL_TOP| Periodicity                                                      NONE

 GENERATE|  Preliminary Number of Bonds generated:                             0
 GENERATE|  Achieved consistency in connectivity generation.

 CELL| Volume [angstrom^3]:                                         27000.000000
 CELL| Vector a [angstrom]:      30.000     0.000     0.000   |a| =    30.000000
 CELL| Vector b [angstrom]:       0.000    30.000     0.000   |b| =    30.000000
 CELL| Vector c [angstrom]:       0.000     0.000    30.000   |c| =    30.000000
 CELL| Angle (b,c), alpha [degree]:                                    90.000000
 CELL| Angle (a,c), beta  [degree]:                                    90.000000
 CELL| Angle (a,b), gamma [degree]:                                    90.000000
 CELL| Numerically orthorhombic:                                             YES
 CELL| Periodicity                                                          NONE

 CELL_REF| Volume [angstrom^3]:                                     27000.000000
 CELL_REF| Vector a [angstrom    30.000     0.000     0.000   |a| =    30.000000
 CELL_REF| Vector b [angstrom     0.000    30.000     0.000   |b| =    30.000000
 CELL_REF| Vector c [angstrom     0.000     0.000    30.000   |c| =    30.000000
 CELL_REF| Angle (b,c), alpha [degree]:                                90.000000
 CELL_REF| Angle (a,c), beta  [degree]:                                90.000000
 CELL_REF| Angle (a,b), gamma [degree]:                                90.000000
 CELL_REF| Numerically orthorhombic:                                         YES
 CELL_REF| Periodicity                                                      NONE

 *******************************************************************************
 *******************************************************************************
 **                                                                           **
 **     #####                         ##              ##                      **
 **    ##   ##            ##          ##              ##                      **
 **   ##     ##                       ##            ######                    **
 **   ##     ##  ##   ##  ##   #####  ##  ##   ####   ##    #####    #####    **
 **   ##     ##  ##   ##  ##  ##      ## ##   ##      ##   ##   ##  ##   ##   **
 **   ##  ## ##  ##   ##  ##  ##      ####     ###    ##   ######   ######    **
 **    ##  ###   ##   ##  ##  ##      ## ##      ##   ##   ##       ##        **
 **     #######   #####   ##   #####  ##  ##  ####    ##    #####   ##        **
 **           ##                                                    ##        **
 **                                                                           **
 **                                                ... make the atoms dance   **
 **                                                                           **
 **            Copyright (C) by CP2K developers group (2000-2025)             **
 **                      J. Chem. Phys. 152, 194103 (2020)                    **
 **                                                                           **
 *******************************************************************************

 DFT| Spin restricted Kohn-Sham (RKS) calculation                            RKS
 DFT| Multiplicity                                                             1
 DFT| Number of spin states                                                    1
 DFT| Charge                                                                   0
 DFT| Self-interaction correction (SIC)                                       NO
 DFT| Cutoffs: density                                              1.000000E-10
 DFT|          gradient                                             1.000000E-10
 DFT|          tau                                                  1.000000E-10
 DFT|          cutoff_smoothing_range                               0.000000E+00
 DFT| XC density smoothing                                                  NONE
 DFT| XC derivatives                                                          PW

 FUNCTIONAL| PBE:
 FUNCTIONAL| J.P.Perdew, K.Burke, M.Ernzerhof, Phys. Rev. Letter, vol. 77, n 18,
 FUNCTIONAL|  pp. 3865-3868, (1996)sx=0.750sc=1.000{spin unpolarized}           


 QS| Method:                                                                GAPW
 QS| Density plane wave grid type                        NON-SPHERICAL FULLSPACE
 QS| Number of grid levels:                                                    4
 QS| Density cutoff [a.u.]:                                                250.0
 QS| Multi grid cutoff [a.u.]: 1) grid level                               250.0
 QS|                           2) grid level                                83.3
 QS|                           3) grid level                                27.8
 QS|                           4) grid level                                 9.3
 QS| Grid level progression factor:                                          3.0
 QS| Relative density cutoff [a.u.]:                                        50.0
 QS| Interaction thresholds: eps_pgf_orb:                                1.0E-12
 QS|                         eps_filter_matrix:                          0.0E+00
 QS|                         eps_core_charge:                            1.0E-14
 QS|                         eps_rho_gspace:                             1.0E-12
 QS|                         eps_rho_rspace:                             1.0E-12
 QS|                         eps_gvg_rspace:                             1.0E-06
 QS|                         eps_ppl:                                    1.0E-02
 QS|                         eps_ppnl:                                   1.0E-08
 QS| GAPW|      One center basis from orbital basis primitives
 QS| GAPW|                   eps_fit:                                    1.0E-04
 QS| GAPW|                   eps_iso:                                    1.0E-12
 QS| GAPW|                   eps_svd:                                    1.0E-08
 QS| GAPW|                   eps_cpc:                                    1.0E-12
 QS| GAPW|   atom-r-grid: quadrature:                                     GC_LOG
 QS| GAPW|      atom-s-grid:  max l :                                          4
 QS| GAPW|      max_l_rho0 :                                                   2


 ATOMIC KIND INFORMATION

  1. Atomic kind: N                                     Number of atoms:       5

     Orbital Basis Set                                                   cc-pVDZ

       Number of orbital shell sets:                                           3
       Number of orbital shells:                                               6
       Number of primitive Cartesian functions:                               14
       Number of Cartesian basis functions:                                   15
       Number of spherical basis functions:                                   14
       Norm type:                                                              2

       Normalised Cartesian orbitals:

                        Set   Shell   Orbital            Exponent    Coefficient

                          1       1    1px              13.550000       1.479258
                                                         2.917000       1.180072
                                                         0.797300       0.548036
                                                         0.218500       0.098423
                          1       1    1py              13.550000       1.479258
                                                         2.917000       1.180072
                                                         0.797300       0.548036
                                                         0.218500       0.098423
                          1       1    1pz              13.550000       1.479258
                                                         2.917000       1.180072
                                                         0.797300       0.548036
                                                         0.218500       0.098423

                          1       2    2px              13.550000       0.000000
                                                         2.917000       0.000000
                                                         0.797300       0.000000
                                                         0.218500       0.212939
                          1       2    2py              13.550000       0.000000
                                                         2.917000       0.000000
                                                         0.797300       0.000000
                                                         0.218500       0.212939
                          1       2    2pz              13.550000       0.000000
                                                         2.917000       0.000000
                                                         0.797300       0.000000
                                                         0.218500       0.212939

                          2       1    1s             9046.000000       0.462754
                                                      1357.000000       0.858723
                                                       309.300000       1.440591
                                                        87.730000       2.108533
                                                        28.560000       2.454153
                                                        10.210000       1.825915
                                                         3.838000       0.543758
                                                         0.746600       0.008838
                                                         0.224800      -0.000666

                          2       2    2s             9046.000000      -0.101145
                                                      1357.000000      -0.192492
                                                       309.300000      -0.314968
                                                        87.730000      -0.501437
                                                        28.560000      -0.593976
                                                        10.210000      -0.643503
                                                         3.838000      -0.238093
                                                         0.746600       0.314268
                                                         0.224800       0.134678

                          2       3    3s             9046.000000       0.000000
                                                      1357.000000       0.000000
                                                       309.300000       0.000000
                                                        87.730000       0.000000
                                                        28.560000       0.000000
                                                        10.210000       0.000000
                                                         3.838000       0.000000
                                                         0.746600       0.000000
                                                         0.224800       0.232679

                          3       1    1dx2              0.817000       1.155575
                          3       1    1dxy              0.817000       2.001514
                          3       1    1dxz              0.817000       2.001514
                          3       1    1dy2              0.817000       1.155575
                          3       1    1dyz              0.817000       2.001514
                          3       1    1dz2              0.817000       1.155575

     RI Auxiliary Basis Set                                        cc-pVDZ-RIFIT

       Number of orbital shell sets:                                          18
       Number of orbital shells:                                              18
       Number of primitive Cartesian functions:                               18
       Number of Cartesian basis functions:                                   66
       Number of spherical basis functions:                                   56
       Norm type:                                                              2

       Normalised Cartesian orbitals:

                        Set   Shell   Orbital            Exponent    Coefficient

                          1       1    1s                0.327261       0.308376

                          2       1    1px               0.461104       0.541613
                          2       1    1py               0.461104       0.541613
                          2       1    1pz               0.461104       0.541613

                          3       1    1dx2              0.477850       0.452033
                          3       1    1dxy              0.477850       0.782943
                          3       1    1dxz              0.477850       0.782943
                          3       1    1dy2              0.477850       0.452033
                          3       1    1dyz              0.477850       0.782943
                          3       1    1dz2              0.477850       0.452033

                          4       1    1s                0.723539       0.559122

                          5       1    1px               1.094610       1.595932
                          5       1    1py               1.094610       1.595932
                          5       1    1pz               1.094610       1.595932

                          6       1    1s                1.123240       0.777615

                          7       1    1dx2              1.285370       2.553929
                          7       1    1dxy              1.285370       4.423534
                          7       1    1dxz              1.285370       4.423534
                          7       1    1dy2              1.285370       2.553929
                          7       1    1dyz              1.285370       4.423534
                          7       1    1dz2              1.285370       2.553929

                          8       1    1fx3              1.334730       2.818965
                          8       1    1fx2y             1.334730       6.303397
                          8       1    1fx2z             1.334730       6.303397
                          8       1    1fxy2             1.334730       6.303397
                          8       1    1fxyz             1.334730      10.917804
                          8       1    1fxz2             1.334730       6.303397
                          8       1    1fy3              1.334730       2.818965
                          8       1    1fy2z             1.334730       6.303397
                          8       1    1fyz2             1.334730       6.303397
                          8       1    1fz3              1.334730       2.818965

                          9       1    1s                2.344260       1.350251

                         10       1    1px               2.533640       4.556393
                         10       1    1py               2.533640       4.556393
                         10       1    1pz               2.533640       4.556393

                         11       1    1fx3              3.401180      23.127095
                         11       1    1fx2y             3.401180      51.713757
                         11       1    1fx2z             3.401180      51.713757
                         11       1    1fxy2             3.401180      51.713757
                         11       1    1fxyz             3.401180      89.570854
                         11       1    1fxz2             3.401180      51.713757
                         11       1    1fy3              3.401180      23.127095
                         11       1    1fy2z             3.401180      51.713757
                         11       1    1fyz2             3.401180      51.713757
                         11       1    1fz3              3.401180      23.127095

                         12       1    1dx2              3.428160      14.215638
                         12       1    1dxy              3.428160      24.622207
                         12       1    1dxz              3.428160      24.622207
                         12       1    1dy2              3.428160      14.215638
                         12       1    1dyz              3.428160      24.622207
                         12       1    1dz2              3.428160      14.215638

                         13       1    1s                7.624360       3.270112

                         14       1    1px               8.552990      20.849111
                         14       1    1py               8.552990      20.849111
                         14       1    1pz               8.552990      20.849111

                         15       1    1dx2             12.327800     133.493224
                         15       1    1dxy             12.327800     231.217046
                         15       1    1dxz             12.327800     231.217046
                         15       1    1dy2             12.327800     133.493224
                         15       1    1dyz             12.327800     231.217046
                         15       1    1dz2             12.327800     133.493224

                         16       1    1s               20.467900       6.858278

                         17       1    1px              29.237300      96.908455
                         17       1    1py              29.237300      96.908455
                         17       1    1pz              29.237300      96.908455

                         18       1    1s               87.686400      20.422517

       Atomic covalent radius [Angstrom]:                                  0.750

       Atomic van der Waals radius [Angstrom]:                             1.550

     The atoms of this atomic kind are PAW atoms (GAPW):
       Hard Gaussian function radius:                                      1.512
       Rho0 radius:                                                        1.512
       Maximum GTO radius used for PAW projector construction:            24.566

     GAPW Soft Basis Set                                            cc-pVDZ_soft

       Number of orbital shell sets:                                           3
       Number of orbital shells:                                               6
       Number of primitive Cartesian functions:                                7
       Number of Cartesian basis functions:                                   15
       Number of spherical basis functions:                                   14
       Norm type:                                                              2

       Normalised Cartesian orbitals:

                        Set   Shell   Orbital            Exponent    Coefficient

                          1       1    1px               2.917000       1.180072
                                                         0.797300       0.548036
                                                         0.218500       0.098423
                          1       1    1py               2.917000       1.180072
                                                         0.797300       0.548036
                                                         0.218500       0.098423
                          1       1    1pz               2.917000       1.180072
                                                         0.797300       0.548036
                                                         0.218500       0.098423

                          1       2    2px               2.917000       0.000000
                                                         0.797300       0.000000
                                                         0.218500       0.212939
                          1       2    2py               2.917000       0.000000
                                                         0.797300       0.000000
                                                         0.218500       0.212939
                          1       2    2pz               2.917000       0.000000
                                                         0.797300       0.000000
                                                         0.218500       0.212939

                          2       1    1s                3.838000       0.543758
                                                         0.746600       0.008838
                                                         0.224800      -0.000666

                          2       2    2s                3.838000      -0.238093
                                                         0.746600       0.314268
                                                         0.224800       0.134678

                          2       3    3s                3.838000       0.000000
                                                         0.746600       0.000000
                                                         0.224800       0.232679

                          3       1    1dx2              0.817000       1.155575
                          3       1    1dxy              0.817000       2.001514
                          3       1    1dxz              0.817000       2.001514
                          3       1    1dy2              0.817000       1.155575
                          3       1    1dyz              0.817000       2.001514
                          3       1    1dz2              0.817000       1.155575

     AE Potential information for                                            ALL

       Description:                                       All-electron potential
                                          Krack, Parrinello, PCCP 2, 2105 (2000)

       Gaussian exponent of the core charge distribution:               5.979100
       Electronic configuration (s p d ...):                           4   3   0

  2. Atomic kind: C                                     Number of atoms:       3

     Orbital Basis Set                                                   cc-pVDZ

       Number of orbital shell sets:                                           3
       Number of orbital shells:                                               6
       Number of primitive Cartesian functions:                               14
       Number of Cartesian basis functions:                                   15
       Number of spherical basis functions:                                   14
       Norm type:                                                              2

       Normalised Cartesian orbitals:

                        Set   Shell   Orbital            Exponent    Coefficient

                          1       1    1px               9.439000       0.898722
                                                         2.002000       0.711071
                                                         0.545600       0.339917
                                                         0.151700       0.063270
                          1       1    1py               9.439000       0.898722
                                                         2.002000       0.711071
                                                         0.545600       0.339917
                                                         0.151700       0.063270
                          1       1    1pz               9.439000       0.898722
                                                         2.002000       0.711071
                                                         0.545600       0.339917
                                                         0.151700       0.063270

                          1       2    2px               9.439000       0.000000
                                                         2.002000       0.000000
                                                         0.545600       0.000000
                                                         0.151700       0.134950
                          1       2    2py               9.439000       0.000000
                                                         2.002000       0.000000
                                                         0.545600       0.000000
                                                         0.151700       0.134950
                          1       2    2pz               9.439000       0.000000
                                                         2.002000       0.000000
                                                         0.545600       0.000000
                                                         0.151700       0.134950

                          2       1    1s             6665.000000       0.363803
                                                      1000.000000       0.675392
                                                       228.000000       1.132301
                                                        64.710000       1.654004
                                                        21.060000       1.924978
                                                         7.495000       1.448149
                                                         2.797000       0.439427
                                                         0.521500       0.006650
                                                         0.159600      -0.000574

                          2       2    2s             6665.000000      -0.076756
                                                      1000.000000      -0.146257
                                                       228.000000      -0.239407
                                                        64.710000      -0.379069
                                                        21.060000      -0.448104
                                                         7.495000      -0.484201
                                                         2.797000      -0.196168
                                                         0.521500       0.238162
                                                         0.159600       0.104468

                          2       3    3s             6665.000000       0.000000
                                                      1000.000000       0.000000
                                                       228.000000       0.000000
                                                        64.710000       0.000000
                                                        21.060000       0.000000
                                                         7.495000       0.000000
                                                         2.797000       0.000000
                                                         0.521500       0.000000
                                                         0.159600       0.179964

                          3       1    1dx2              0.550000       0.578155
                          3       1    1dxy              0.550000       1.001394
                          3       1    1dxz              0.550000       1.001394
                          3       1    1dy2              0.550000       0.578155
                          3       1    1dyz              0.550000       1.001394
                          3       1    1dz2              0.550000       0.578155

     RI Auxiliary Basis Set                                        cc-pVDZ-RIFIT

       Number of orbital shell sets:                                          18
       Number of orbital shells:                                              18
       Number of primitive Cartesian functions:                               18
       Number of Cartesian basis functions:                                   66
       Number of spherical basis functions:                                   56
       Norm type:                                                              2

       Normalised Cartesian orbitals:

                        Set   Shell   Orbital            Exponent    Coefficient

                          1       1    1s                0.206796       0.218558

                          2       1    1px               0.321667       0.345301
                          2       1    1py               0.321667       0.345301
                          2       1    1pz               0.321667       0.345301

                          3       1    1dx2              0.340842       0.250252
                          3       1    1dxy              0.340842       0.433449
                          3       1    1dxz              0.340842       0.433449
                          3       1    1dy2              0.340842       0.250252
                          3       1    1dyz              0.340842       0.433449
                          3       1    1dz2              0.340842       0.250252

                          4       1    1s                0.409072       0.364552

                          5       1    1px               0.754465       1.002280
                          5       1    1py               0.754465       1.002280
                          5       1    1pz               0.754465       1.002280

                          6       1    1s                0.782697       0.593069

                          7       1    1fx3              0.895756       1.149162
                          7       1    1fx2y             0.895756       2.569605
                          7       1    1fx2z             0.895756       2.569605
                          7       1    1fxy2             0.895756       2.569605
                          7       1    1fxyz             0.895756       4.450686
                          7       1    1fxz2             0.895756       2.569605
                          7       1    1fy3              0.895756       1.149162
                          7       1    1fy2z             0.895756       2.569605
                          7       1    1fyz2             0.895756       2.569605
                          7       1    1fz3              0.895756       1.149162

                          8       1    1dx2              0.922515       1.429266
                          8       1    1dxy              0.922515       2.475561
                          8       1    1dxz              0.922515       2.475561
                          8       1    1dy2              0.922515       1.429266
                          8       1    1dyz              0.922515       2.475561
                          8       1    1dz2              0.922515       1.429266

                          9       1    1s                1.513330       0.972434

                         10       1    1px               1.720600       2.808924
                         10       1    1py               1.720600       2.808924
                         10       1    1pz               1.720600       2.808924

                         11       1    1dx2              2.678440       9.230024
                         11       1    1dxy              2.678440      15.986870
                         11       1    1dxz              2.678440      15.986870
                         11       1    1dy2              2.678440       9.230024
                         11       1    1dyz              2.678440      15.986870
                         11       1    1dz2              2.678440       9.230024

                         12       1    1fx3              2.742930      14.254027
                         12       1    1fx2y             2.742930      31.872974
                         12       1    1fx2z             2.742930      31.872974
                         12       1    1fxy2             2.742930      31.872974
                         12       1    1fxyz             2.742930      55.205610
                         12       1    1fxz2             2.742930      31.872974
                         12       1    1fy3              2.742930      14.254027
                         12       1    1fy2z             2.742930      31.872974
                         12       1    1fyz2             2.742930      31.872974
                         12       1    1fz3              2.742930      14.254027

                         13       1    1s                4.772770       2.301378

                         14       1    1px               6.005230      13.399918
                         14       1    1py               6.005230      13.399918
                         14       1    1pz               6.005230      13.399918

                         15       1    1dx2             10.171500      95.352748
                         15       1    1dxy             10.171500     165.155804
                         15       1    1dxz             10.171500     165.155804
                         15       1    1dy2             10.171500      95.352748
                         15       1    1dyz             10.171500     165.155804
                         15       1    1dz2             10.171500      95.352748

                         16       1    1s               13.804500       5.104176

                         17       1    1px              20.885100      63.640823
                         17       1    1py              20.885100      63.640823
                         17       1    1pz              20.885100      63.640823

                         18       1    1s               62.745300      15.888979

       Atomic covalent radius [Angstrom]:                                  0.770

       Atomic van der Waals radius [Angstrom]:                             1.700

     The atoms of this atomic kind are PAW atoms (GAPW):
       Hard Gaussian function radius:                                      1.512
       Rho0 radius:                                                        1.512
       Maximum GTO radius used for PAW projector construction:            24.566

     GAPW Soft Basis Set                                            cc-pVDZ_soft

       Number of orbital shell sets:                                           3
       Number of orbital shells:                                               6
       Number of primitive Cartesian functions:                                7
       Number of Cartesian basis functions:                                   15
       Number of spherical basis functions:                                   14
       Norm type:                                                              2

       Normalised Cartesian orbitals:

                        Set   Shell   Orbital            Exponent    Coefficient

                          1       1    1px               2.002000       0.711071
                                                         0.545600       0.339917
                                                         0.151700       0.063270
                          1       1    1py               2.002000       0.711071
                                                         0.545600       0.339917
                                                         0.151700       0.063270
                          1       1    1pz               2.002000       0.711071
                                                         0.545600       0.339917
                                                         0.151700       0.063270

                          1       2    2px               2.002000       0.000000
                                                         0.545600       0.000000
                                                         0.151700       0.134950
                          1       2    2py               2.002000       0.000000
                                                         0.545600       0.000000
                                                         0.151700       0.134950
                          1       2    2pz               2.002000       0.000000
                                                         0.545600       0.000000
                                                         0.151700       0.134950

                          2       1    1s                2.797000       0.439427
                                                         0.521500       0.006650
                                                         0.159600      -0.000574

                          2       2    2s                2.797000      -0.196168
                                                         0.521500       0.238162
                                                         0.159600       0.104468

                          2       3    3s                2.797000       0.000000
                                                         0.521500       0.000000
                                                         0.159600       0.179964

                          3       1    1dx2              0.550000       0.578155
                          3       1    1dxy              0.550000       1.001394
                          3       1    1dxz              0.550000       1.001394
                          3       1    1dy2              0.550000       0.578155
                          3       1    1dyz              0.550000       1.001394
                          3       1    1dz2              0.550000       0.578155

     AE Potential information for                                            ALL

       Description:                                       All-electron potential
                                          Krack, Parrinello, PCCP 2, 2105 (2000)

       Gaussian exponent of the core charge distribution:               4.109048
       Electronic configuration (s p d ...):                           4   2   0

  3. Atomic kind: H                                     Number of atoms:       5

     Orbital Basis Set                                                   cc-pVDZ

       Number of orbital shell sets:                                           2
       Number of orbital shells:                                               3
       Number of primitive Cartesian functions:                                5
       Number of Cartesian basis functions:                                    5
       Number of spherical basis functions:                                    5
       Norm type:                                                              2

       Normalised Cartesian orbitals:

                        Set   Shell   Orbital            Exponent    Coefficient

                          1       1    1s               13.010000       0.096107
                                                         1.962000       0.163020
                                                         0.444600       0.185545
                                                         0.122000       0.073744

                          1       2    2s               13.010000       0.000000
                                                         1.962000       0.000000
                                                         0.444600       0.000000
                                                         0.122000       0.147123

                          2       1    1px               0.727000       0.956881
                          2       1    1py               0.727000       0.956881
                          2       1    1pz               0.727000       0.956881

     RI Auxiliary Basis Set                                        cc-pVDZ-RIFIT

       Number of orbital shell sets:                                           6
       Number of orbital shells:                                               6
       Number of primitive Cartesian functions:                                6
       Number of Cartesian basis functions:                                   15
       Number of spherical basis functions:                                   14
       Norm type:                                                              2

       Normalised Cartesian orbitals:

                        Set   Shell   Orbital            Exponent    Coefficient

                          1       1    1s                0.291662       0.282859

                          2       1    1px               0.986401       1.401222
                          2       1    1py               0.986401       1.401222
                          2       1    1pz               0.986401       1.401222

                          3       1    1s                1.142965       0.787834

                          4       1    1dx2              1.172083       2.173136
                          4       1    1dxy              1.172083       3.763982
                          4       1    1dxz              1.172083       3.763982
                          4       1    1dy2              1.172083       2.173136
                          4       1    1dyz              1.172083       3.763982
                          4       1    1dz2              1.172083       2.173136

                          5       1    1px               1.914964       3.211004
                          5       1    1py               1.914964       3.211004
                          5       1    1pz               1.914964       3.211004

                          6       1    1s                5.115890       2.424381

       Atomic covalent radius [Angstrom]:                                  0.320

       Atomic van der Waals radius [Angstrom]:                             1.090

     The atoms of this atomic kind are PAW atoms (GAPW):
       Hard Gaussian function radius:                                      1.200
       Rho0 radius:                                                        1.200
       Maximum GTO radius used for PAW projector construction:            24.566

     GAPW Soft Basis Set                                            cc-pVDZ_soft

       Number of orbital shell sets:                                           2
       Number of orbital shells:                                               3
       Number of primitive Cartesian functions:                                4
       Number of Cartesian basis functions:                                    5
       Number of spherical basis functions:                                    5
       Norm type:                                                              2

       Normalised Cartesian orbitals:

                        Set   Shell   Orbital            Exponent    Coefficient

                          1       1    1s                1.962000       0.163020
                                                         0.444600       0.185545
                                                         0.122000       0.073744

                          1       2    2s                1.962000       0.000000
                                                         0.444600       0.000000
                                                         0.122000       0.147123

                          2       1    1px               0.727000       0.956881
                          2       1    1py               0.727000       0.956881
                          2       1    1pz               0.727000       0.956881

     AE Potential information for                                            ALL

       Description:                                       All-electron potential
                                          Krack, Parrinello, PCCP 2, 2105 (2000)

       Gaussian exponent of the core charge distribution:              12.500000
       Electronic configuration (s p d ...):                           1   0   0

  4. Atomic kind: O                                     Number of atoms:       1

     Orbital Basis Set                                                   cc-pVDZ

       Number of orbital shell sets:                                           3
       Number of orbital shells:                                               6
       Number of primitive Cartesian functions:                               14
       Number of Cartesian basis functions:                                   15
       Number of spherical basis functions:                                   14
       Norm type:                                                              2

       Normalised Cartesian orbitals:

                        Set   Shell   Orbital            Exponent    Coefficient

                          1       1    1px              17.700000       2.226162
                                                         3.854000       1.761976
                                                         1.046000       0.767079
                                                         0.275300       0.130905
                          1       1    1py              17.700000       2.226162
                                                         3.854000       1.761976
                                                         1.046000       0.767079
                                                         0.275300       0.130905
                          1       1    1pz              17.700000       2.226162
                                                         3.854000       1.761976
                                                         1.046000       0.767079
                                                         0.275300       0.130905

                          1       2    2px              17.700000       0.000000
                                                         3.854000       0.000000
                                                         1.046000       0.000000
                                                         0.275300       0.284248
                          1       2    2py              17.700000       0.000000
                                                         3.854000       0.000000
                                                         1.046000       0.000000
                                                         0.275300       0.284248
                          1       2    2pz              17.700000       0.000000
                                                         3.854000       0.000000
                                                         1.046000       0.000000
                                                         0.275300       0.284248

                          2       1    1s            11720.000000       0.569986
                                                      1759.000000       1.058881
                                                       400.800000       1.777168
                                                       113.700000       2.600710
                                                        37.030000       3.028357
                                                        13.270000       2.223504
                                                         5.025000       0.648119
                                                         1.013000       0.011124
                                                         0.302300      -0.000751

                          2       2    2s            11720.000000      -0.128448
                                                      1759.000000      -0.244491
                                                       400.800000      -0.400097
                                                       113.700000      -0.638166
                                                        37.030000      -0.758785
                                                        13.270000      -0.819649
                                                         5.025000      -0.279757
                                                         1.013000       0.401106
                                                         0.302300       0.166422

                          2       3    3s            11720.000000       0.000000
                                                      1759.000000       0.000000
                                                       400.800000       0.000000
                                                       113.700000       0.000000
                                                        37.030000       0.000000
                                                        13.270000       0.000000
                                                         5.025000       0.000000
                                                         1.013000       0.000000
                                                         0.302300       0.290562

                          3       1    1dx2              1.185000       2.215218
                          3       1    1dxy              1.185000       3.836871
                          3       1    1dxz              1.185000       3.836871
                          3       1    1dy2              1.185000       2.215218
                          3       1    1dyz              1.185000       3.836871
                          3       1    1dz2              1.185000       2.215218

     RI Auxiliary Basis Set                                        cc-pVDZ-RIFIT

       Number of orbital shell sets:                                          18
       Number of orbital shells:                                              18
       Number of primitive Cartesian functions:                               18
       Number of Cartesian basis functions:                                   66
       Number of spherical basis functions:                                   56
       Norm type:                                                              2

       Normalised Cartesian orbitals:

                        Set   Shell   Orbital            Exponent    Coefficient

                          1       1    1s                0.421376       0.372746

                          2       1    1dx2              0.592201       0.658007
                          2       1    1dxy              0.592201       1.139701
                          2       1    1dxz              0.592201       1.139701
                          2       1    1dy2              0.592201       0.658007
                          2       1    1dyz              0.592201       1.139701
                          2       1    1dz2              0.592201       0.658007

                          3       1    1px               0.612763       0.772780
                          3       1    1py               0.612763       0.772780
                          3       1    1pz               0.612763       0.772780

                          4       1    1s                0.905061       0.661330

                          5       1    1s                1.396380       0.915509

                          6       1    1px               1.403870       2.178205
                          6       1    1py               1.403870       2.178205
                          6       1    1pz               1.403870       2.178205

                          7       1    1fx3              1.790210       5.457433
                          7       1    1fx2y             1.790210      12.203191
                          7       1    1fx2z             1.790210      12.203191
                          7       1    1fxy2             1.790210      12.203191
                          7       1    1fxyz             1.790210      21.136547
                          7       1    1fxz2             1.790210      12.203191
                          7       1    1fy3              1.790210       5.457433
                          7       1    1fy2z             1.790210      12.203191
                          7       1    1fyz2             1.790210      12.203191
                          7       1    1fz3              1.790210       5.457433

                          8       1    1dx2              1.812210       4.658803
                          8       1    1dxy              1.812210       8.069284
                          8       1    1dxz              1.812210       8.069284
                          8       1    1dy2              1.812210       4.658803
                          8       1    1dyz              1.812210       8.069284
                          8       1    1dz2              1.812210       4.658803

                          9       1    1s                2.939600       1.600023

                         10       1    1px               3.205940       6.114829
                         10       1    1py               3.205940       6.114829
                         10       1    1pz               3.205940       6.114829

                         11       1    1fx3              4.221940      37.614611
                         11       1    1fx2y             4.221940      84.108828
                         11       1    1fx2z             4.221940      84.108828
                         11       1    1fxy2             4.221940      84.108828
                         11       1    1fxyz             4.221940     145.680763
                         11       1    1fxz2             4.221940      84.108828
                         11       1    1fy3              4.221940      37.614611
                         11       1    1fy2z             4.221940      84.108828
                         11       1    1fyz2             4.221940      84.108828
                         11       1    1fz3              4.221940      37.614611

                         12       1    1dx2              4.520870      23.070021
                         12       1    1dxy              4.520870      39.958448
                         12       1    1dxz              4.520870      39.958448
                         12       1    1dy2              4.520870      23.070021
                         12       1    1dyz              4.520870      39.958448
                         12       1    1dz2              4.520870      23.070021

                         13       1    1s                9.551480       3.872247

                         14       1    1px              10.881700      28.171568
                         14       1    1py              10.881700      28.171568
                         14       1    1pz              10.881700      28.171568

                         15       1    1dx2             15.251100     193.725371
                         15       1    1dxy             15.251100     335.542185
                         15       1    1dxz             15.251100     335.542185
                         15       1    1dy2             15.251100     193.725371
                         15       1    1dyz             15.251100     335.542185
                         15       1    1dz2             15.251100     193.725371

                         16       1    1s               25.578000       8.106064

                         17       1    1px              36.129200     126.259196
                         17       1    1py              36.129200     126.259196
                         17       1    1pz              36.129200     126.259196

                         18       1    1s              109.461000      24.118742

       Atomic covalent radius [Angstrom]:                                  0.730

       Atomic van der Waals radius [Angstrom]:                             1.520

     The atoms of this atomic kind are PAW atoms (GAPW):
       Hard Gaussian function radius:                                      1.512
       Rho0 radius:                                                        1.512
       Maximum GTO radius used for PAW projector construction:            24.566

     GAPW Soft Basis Set                                            cc-pVDZ_soft

       Number of orbital shell sets:                                           3
       Number of orbital shells:                                               6
       Number of primitive Cartesian functions:                                6
       Number of Cartesian basis functions:                                   15
       Number of spherical basis functions:                                   14
       Norm type:                                                              2

       Normalised Cartesian orbitals:

                        Set   Shell   Orbital            Exponent    Coefficient

                          1       1    1px               3.854000       1.761976
                                                         1.046000       0.767079
                                                         0.275300       0.130905
                          1       1    1py               3.854000       1.761976
                                                         1.046000       0.767079
                                                         0.275300       0.130905
                          1       1    1pz               3.854000       1.761976
                                                         1.046000       0.767079
                                                         0.275300       0.130905

                          1       2    2px               3.854000       0.000000
                                                         1.046000       0.000000
                                                         0.275300       0.284248
                          1       2    2py               3.854000       0.000000
                                                         1.046000       0.000000
                                                         0.275300       0.284248
                          1       2    2pz               3.854000       0.000000
                                                         1.046000       0.000000
                                                         0.275300       0.284248

                          2       1    1s                1.013000       0.011124
                                                         0.302300      -0.000751

                          2       2    2s                1.013000       0.401106
                                                         0.302300       0.166422

                          2       3    3s                1.013000       0.000000
                                                         0.302300       0.290562

                          3       1    1dx2              1.185000       2.215218
                          3       1    1dxy              1.185000       3.836871
                          3       1    1dxz              1.185000       3.836871
                          3       1    1dy2              1.185000       2.215218
                          3       1    1dyz              1.185000       3.836871
                          3       1    1dz2              1.185000       2.215218

     AE Potential information for                                            ALL

       Description:                                       All-electron potential
                                          Krack, Parrinello, PCCP 2, 2105 (2000)

       Gaussian exponent of the core charge distribution:               8.154466
       Electronic configuration (s p d ...):                           4   4   0


 MOLECULE KIND INFORMATION


 All atoms are their own molecule, skipping detailed information


 TOTAL NUMBERS AND MAXIMUM NUMBERS

  Total number of            - Atomic kinds:                                   4
                             - Atoms:                                         14
                             - Shell sets:                                    37
                             - Shells:                                        69
                             - Primitive Cartesian functions:                151
                             - Cartesian basis functions:                    160
                             - Spherical basis functions:                    151

  Maximum angular momentum of the orbital basis functions:                     2


 MODULE QUICKSTEP: ATOMIC COORDINATES IN ANGSTROM

   Atom Kind Element         X             Y             Z       Z(eff)     Mass
      1    1 N     7     14.398131     13.397348     14.554777   7.0000  14.0067
      2    1 N     7     15.211081     11.110254     15.141923   7.0000  14.0067
      3    2 C     6     14.851620     12.197489     14.880055   6.0000  12.0107
      4    1 N     7     14.331303     17.965093     14.366894   7.0000  14.0067
      5    1 N     7     14.549792     15.669895     14.597305   7.0000  14.0067
      6    2 C     6     15.065902     16.931340     14.887731   6.0000  12.0107
      7    2 C     6     15.078819     14.441677     14.974956   6.0000  12.0107
      8    3 H     1     14.608084     18.889746     14.671150   1.0000   1.0079
      9    3 H     1     13.369744     17.845613     14.074880   1.0000   1.0079
     10    3 H     1     13.722938     15.568853     14.016893   1.0000   1.0079
     11    3 H     1     16.591375     13.540477     15.983107   1.0000   1.0079
     12    4 O     8     16.104178     17.108242     15.523163   8.0000  15.9994
     13    1 N     7     16.195675     14.433985     15.714283   7.0000  14.0067
     14    3 H     1     16.630256     15.330410     15.940694   1.0000   1.0079



 SCF PARAMETERS         Density guess:                                    ATOMIC
                        --------------------------------------------------------
                        max_scf:                                             500
                        max_scf_history:                                       0
                        max_diis:                                              4
                        --------------------------------------------------------
                        eps_scf:                                        1.00E-06
                        eps_scf_history:                                0.00E+00
                        eps_diis:                                       1.00E-01
                        eps_eigval:                                     1.00E-05
                        --------------------------------------------------------
                        level_shift [a.u.]:                             0.000000
                        added MOs                                       118    0
                        --------------------------------------------------------
                        Mixing method:                            BROYDEN_MIXING
                                                charge density mixing in g-space
                        --------------------------------------------------------
                        No outer SCF

 PW_GRID| Information for grid number                                          1
 PW_GRID| Grid distributed over                                   216 processors
 PW_GRID| Real space group dimensions                                   216    1
 PW_GRID| the grid is blocked:                                                NO
 PW_GRID| Cutoff [a.u.]                                                    250.0
 PW_GRID| spherical cutoff:                                                   NO
 PW_GRID|   Bounds   1           -202     202                Points:         405
 PW_GRID|   Bounds   2           -202     202                Points:         405
 PW_GRID|   Bounds   3           -202     202                Points:         405
 PW_GRID| Volume element (a.u.^3)  0.2743E-02     Volume (a.u.^3)    182205.0337
 PW_GRID| Grid span                                                    FULLSPACE
 PW_GRID|   Distribution                         Average         Max         Min
 PW_GRID|   G-Vectors                           307546.9      307800      307395
 PW_GRID|   G-Rays                                 759.4         760         759
 PW_GRID|   Real Space Points                   307546.9      328050      164025

 PW_GRID| Information for grid number                                          2
 PW_GRID| Number of the reference grid                                         1
 PW_GRID| Grid distributed over                                   216 processors
 PW_GRID| Real space group dimensions                                   216    1
 PW_GRID| the grid is blocked:                                                NO
 PW_GRID| Cutoff [a.u.]                                                     83.3
 PW_GRID| spherical cutoff:                                                   NO
 PW_GRID|   Bounds   1           -120     119                Points:         240
 PW_GRID|   Bounds   2           -120     119                Points:         240
 PW_GRID|   Bounds   3           -120     119                Points:         240
 PW_GRID| Volume element (a.u.^3)  0.1318E-01     Volume (a.u.^3)    182205.0337
 PW_GRID| Grid span                                                    FULLSPACE
 PW_GRID|   Distribution                         Average         Max         Min
 PW_GRID|   G-Vectors                            64000.0       64560       63360
 PW_GRID|   G-Rays                                 266.7         269         264
 PW_GRID|   Real Space Points                    64000.0      115200       57600

 PW_GRID| Information for grid number                                          3
 PW_GRID| Number of the reference grid                                         1
 PW_GRID| Grid distributed over                                   216 processors
 PW_GRID| Real space group dimensions                                    12   18
 PW_GRID| the grid is blocked:                                                NO
 PW_GRID| Cutoff [a.u.]                                                     27.8
 PW_GRID| spherical cutoff:                                                   NO
 PW_GRID|   Bounds   1            -67      67                Points:         135
 PW_GRID|   Bounds   2            -67      67                Points:         135
 PW_GRID|   Bounds   3            -67      67                Points:         135
 PW_GRID| Volume element (a.u.^3)  0.7406E-01     Volume (a.u.^3)    182205.0337
 PW_GRID| Grid span                                                    FULLSPACE
 PW_GRID|   Distribution                         Average         Max         Min
 PW_GRID|   G-Vectors                            11390.6       11610       11205
 PW_GRID|   G-Rays                                  84.4          86          83
 PW_GRID|   Real Space Points                    11390.6       12960       10395

 PW_GRID| Information for grid number                                          4
 PW_GRID| Number of the reference grid                                         1
 PW_GRID| Grid distributed over                                   216 processors
 PW_GRID| Real space group dimensions                                    12   18
 PW_GRID| the grid is blocked:                                                NO
 PW_GRID| Cutoff [a.u.]                                                      9.3
 PW_GRID| spherical cutoff:                                                   NO
 PW_GRID|   Bounds   1            -40      39                Points:          80
 PW_GRID|   Bounds   2            -40      39                Points:          80
 PW_GRID|   Bounds   3            -40      39                Points:          80
 PW_GRID| Volume element (a.u.^3)  0.3559         Volume (a.u.^3)    182205.0337
 PW_GRID| Grid span                                                    FULLSPACE
 PW_GRID|   Distribution                         Average         Max         Min
 PW_GRID|   G-Vectors                             2370.4        2480        2240
 PW_GRID|   G-Rays                                  29.6          31          28
 PW_GRID|   Real Space Points                     2370.4        2800        1920

 POISSON| Solver                                                         WAVELET
 POISSON| Wavelet| Scaling function                                           40
 POISSON| Periodicity                                                       NONE

 RS_GRID| Information for grid number                                          1
 RS_GRID|   Bounds   1           -202     202                Points:         405
 RS_GRID|   Bounds   2           -202     202                Points:         405
 RS_GRID|   Bounds   3           -202     202                Points:         405
 RS_GRID| Real space distribution over                                  6 groups
 RS_GRID| Real space distribution along direction                              1
 RS_GRID| Border size                                                         34
 RS_GRID| Real space distribution over                                  6 groups
 RS_GRID| Real space distribution along direction                              2
 RS_GRID| Border size                                                         34
 RS_GRID| Real space distribution over                                  6 groups
 RS_GRID| Real space distribution along direction                              3
 RS_GRID| Border size                                                         34
 RS_GRID|   Distribution                         Average         Max         Min
 RS_GRID|   Planes                                 135.5         136         135
 RS_GRID|   Distribution                         Average         Max         Min
 RS_GRID|   Planes                                 135.5         136         135
 RS_GRID|   Distribution                         Average         Max         Min
 RS_GRID|   Planes                                 135.5         136         135

 RS_GRID| Information for grid number                                          2
 RS_GRID|   Bounds   1           -120     119                Points:         240
 RS_GRID|   Bounds   2           -120     119                Points:         240
 RS_GRID|   Bounds   3           -120     119                Points:         240
 RS_GRID| Real space distribution over                                  6 groups
 RS_GRID| Real space distribution along direction                              1
 RS_GRID| Border size                                                         34
 RS_GRID| Real space distribution over                                  6 groups
 RS_GRID| Real space distribution along direction                              2
 RS_GRID| Border size                                                         34
 RS_GRID| Real space distribution over                                  6 groups
 RS_GRID| Real space distribution along direction                              3
 RS_GRID| Border size                                                         34
 RS_GRID|   Distribution                         Average         Max         Min
 RS_GRID|   Planes                                 108.0         108         108
 RS_GRID|   Distribution                         Average         Max         Min
 RS_GRID|   Planes                                 108.0         108         108
 RS_GRID|   Distribution                         Average         Max         Min
 RS_GRID|   Planes                                 108.0         108         108

[...]
 pw_poisson_solve                   231  9.4    2.217    2.472   80.684   81.227
 scf_env_do_scf                       1  3.0    0.000    0.000   80.106   80.109
 scf_env_do_scf_inner_loop           71  4.0    0.002    0.005   80.106   80.109
 fft_wrap_pw1pw2                   4705 11.0    0.075    0.104   73.362   74.063
 fft_wrap_pw1pw2_250               3313 12.1    2.285    2.513   69.408   70.246
 tddfpt_apply_coulomb               160  9.0    0.003    0.004   67.385   67.897
 fft3d_ps                          4705 13.0   21.909   23.363   63.489   64.475
 qs_ks_update_qs_env                 71  5.0    0.000    0.001   60.221   60.228
 rebuild_ks_matrix                   71  6.0    0.000    0.000   60.214   60.221
 qs_ks_build_kohn_sham_matrix        71  7.0    0.010    0.012   60.214   60.221
 ps_wavelet_solve                   231 10.4   23.909   34.428   57.317   57.557
 mp_alltoall_z22v                  4705 15.0   36.125   44.633   36.125   44.633
 qs_rho_update_rho_low              233  7.8    0.003    0.003   37.703   37.708
 calculate_rho_elec                 233  8.8    0.508    0.544   37.354   37.359
 mp_alltoall_d54                    231 11.4   12.691   31.775   12.691   31.775
 xc_pw_derive                      1389 11.0    0.013    0.016   29.587   30.935
 density_rs2pw                      233  9.8    0.013    0.016   24.107   25.257
 tddfpt_apply_xc_analytic           160  9.0    0.111    0.138   24.643   24.771
 integrate_v_rspace                 231  9.0    0.005    0.007   23.923   24.256
 x_to_yz                           1923 13.7    2.246    2.533   22.107   23.595
 mp_alltoall_d45                    232 11.4   20.550   23.044   20.550   23.044
 yz_to_x                           1854 14.5    1.693    2.061   17.796   22.838
 integrate_four_center              391  9.8    7.905   16.274   21.125   21.236
 xc_pw_divergence                   231 10.7    0.007    0.009   19.977   21.118
 potential_pw2rs                    231 10.0    0.048    0.066   20.821   21.096
 transfer_pw2rs                    1156 10.9    0.015    0.019   19.319   19.586
 transfer_rs2pw                    1165 10.7    0.030    0.059   17.428   18.474
 tddfpt_apply_hfx                     8  8.0    0.003    0.004   18.396   18.396
 mp_sync                           2083 11.5    8.619   15.714    8.619   15.714
 tddft_hfx_matrix                   320  9.0    0.008    0.009   14.699   14.781
 xc_calc_2nd_deriv_analytical      1440 10.1    0.773    0.948   14.449   14.552
 mp_waitany                       58506 12.8   12.187   13.908   12.187   13.908
 grid_collocate_task_list           233  9.8   12.264   13.859   12.264   13.859
 qs_vxc_create                       71  8.0    0.001    0.001   12.839   12.852
 xc_vxc_pw_create                    71  9.0    0.201    0.234   12.839   12.851
 mp_alltoall_d11v                 14336 11.6    8.487   11.720    8.487   11.720
 prepare_gapw_den                   232  8.7    0.004    0.005   11.251   11.425
 transfer_pw2rs_250                 463 11.7    3.443    3.739   10.683   10.933
 put_rho0_on_grid                   232  9.7    0.539    0.672   10.038   10.212
 transfer_rs2pw_250                 466 11.7    3.449    3.840    8.732    9.918
 integrate_vhg0_rspace              231  9.4    0.112    0.198    9.648    9.755
 sum_up_and_integrate                71  8.0    0.001    0.001    7.098    7.127
 cp_dbcsr_sm_fm_multiply           1006  8.6    0.020    0.024    7.017    7.114
 hfx_ks_matrix                       71  8.0    0.003    0.003    6.439    6.482
 xc_rho_set_and_dset_create          72 10.0    0.168    0.210    5.883    6.260
 mp_sum_d                          4458  7.7    3.647    5.986    3.647    5.986
 gspace_mixing                       70  5.0    0.152    0.163    5.509    5.509
 calculate_xc_2nd_deriv_atom        160  9.0    0.052    1.745    0.123    5.506
 mp_waitall_1                    463454 13.1    4.074    5.235    4.074    5.235
 transfer_rs2pw_30                  233 11.8    2.201    2.318    5.007    5.105
 dbcsr_complete_redistribute       3370 10.5    0.138    0.185    4.938    5.053
 transfer_pw2rs_30                  231 12.0    2.117    2.330    4.789    5.016
 gaVxcgb_GC                         924  9.7    0.064    4.593    0.064    4.593
 broyden_mixing                      70  6.0    3.805    3.914    3.959    4.015
 mp_sendrecv_dv                  100190 12.8    3.742    3.891    3.742    3.891
 pw_scatter_p                      2385 12.8    3.057    3.592    3.057    3.592
 mp_sum_dm                         9858  9.9    3.209    3.463    3.209    3.463
 copy_dbcsr_to_fm                  1099  9.3    0.015    0.016    3.349    3.388
 copy_fm_to_dbcsr                  2269  9.5    0.010    0.011    3.225    3.345
 rs_gather_matrices                 231 10.0    0.004    0.009    2.966    3.166
 pw_gather_p                       2320 13.3    2.544    3.071    2.544    3.071
 grid_integrate_task_list           231 10.0    0.130    2.983    0.130    2.983
 cp2k_distribution_to_z_slices      231 10.4    1.078    1.178    2.369    2.899
 dbcsr_multiply_generic            1397 10.3    0.062    0.069    2.816    2.895
 fft_wrap_pw1pw2_90                 464 11.9    0.069    0.128    2.370    2.712
 transfer_pw2rs_90                  231 12.0    0.527    0.614    2.322    2.662
 qs_scf_new_mos                      71  5.0    0.001    0.001    2.570    2.576
 rs_grid_zero                      1158 11.9    2.434    2.536    2.434    2.536
 mp_isendrecv_dv                 267460 12.3    1.452    2.523    1.452    2.523
 pw_derive                         2082 11.8    2.284    2.472    2.284    2.472
 mp_alltoall_i11v                 11210 11.4    2.457    2.459    2.457    2.459
 transfer_rs2pw_90                  233 11.8    0.532    0.591    2.158    2.459
 cp_fm_syevd                        121  7.2    0.001    0.001    2.356    2.362
 create_qs_kind_set                   1  2.0    0.000    0.000    2.322    2.322
 read_qs_kind                         4  3.0    1.270    1.323    2.322    2.322
 cp_fm_redistribute_end             121  8.2    1.160    2.208    1.168    2.214
 cp_fm_syevd_base                   121  8.2    1.040    2.087    1.040    2.087
 calculate_vxc_atom                  71  8.0    0.047    0.427    2.009    2.013
 cp_dbcsr_sm_fm_multiply_core      1006  9.6    0.003    0.003    1.906    1.976
 powell_optimize                 742303 11.0    1.820    1.919    1.820    1.919
 xc_functional_eval                1920 10.9    0.001    0.006    1.005    1.760
 multiply_cannon                   1397 11.3    0.172    0.178    1.662    1.758
 eigensolver_symm                    71  6.0    0.002    0.002    1.752    1.756
 pbe_lda_eval                      1920 11.9    1.004    1.754    1.004    1.754
 pw_copy                           3150 11.0    1.585    1.725    1.585    1.725
 pw_copy_to_array                  2320 13.3    1.112    1.713    1.112    1.713
 cp_dbcsr_plus_fm_fm_t              231  8.4    0.004    0.004    1.615    1.627
 dbcsr_desymmetrize_deep           1100 10.3    0.031    0.035    1.551    1.590
 transfer_pw2rs_10                  231 12.0    0.555    0.654    1.510    1.589
 transfer_rs2pw_10                  233 11.8    0.565    0.608    1.501    1.529
 tddfpt_orthonormalize_psi1_psi       9  6.9    0.019    0.021    1.524    1.525
 calc_screening_functions             1 10.0    0.541    0.549    1.458    1.507
 mp_isend_dv                     148944 13.8    0.926    1.467    0.926    1.467
 pw_poisson_set                     232 10.4    0.006    0.007    1.376    1.418
 calc_pair_dist_radii                 1 10.0    0.412    0.443    1.316    1.383
 multiply_cannon_loop              1397 12.3    0.321    0.338    1.268    1.349
 tddfpt_apply_energy_diff             8  8.0    0.001    0.001    1.229    1.229
 parallel_gemm_fm                  1506  8.2    0.002    0.002    1.201    1.220
 parallel_gemm_fm_gemm             1506  9.2    0.002    0.002    1.199    1.219
 cp_fm_gemm                        1506 10.2    1.197    1.217    1.197    1.217
 calculate_rho_atom                 928  9.7    0.579    1.119    0.579    1.119
 tddfpt_print_nto_analysis            1  6.0    0.002    0.003    1.095    1.096
 parser_read_line                269988  4.0    0.091    0.099    1.052    1.068
 pw_integral_ab_c1d_c1d_gs          231 10.4    0.751    0.758    0.971    1.066
 mp_alltoall_z11v                   928 14.9    1.022    1.062    1.022    1.062
 mp_irecv_dm3                      8358 12.8    0.542    1.051    0.542    1.051
 tddfpt_compute_residual_vects        7  7.0    0.001    0.001    1.031    1.031
 fft_wrap_pw1pw2_30                 464 11.9    0.013    0.014    0.987    1.021
 Vh_1c_gg_integrals                 231  9.4    0.022    0.243    0.467    1.016
 parser_read_line_low               296  5.0    0.087    0.414    0.961    0.980
 pw_axpy                           2478 10.8    0.870    0.973    0.870    0.973
 mp_sum_dv                        17707  8.9    0.911    0.969    0.911    0.969
 mp_isend_dm3                      8358 12.8    0.469    0.968    0.469    0.968
 broadcast_input_information        296  6.0    0.205    0.231    0.874    0.912
 pw_copy_from_array                2385 12.8    0.713    0.893    0.713    0.893
 mp_max_i                           702  4.9    0.332    0.851    0.332    0.851
 make_m2s                          2794 11.3    0.055    0.059    0.793    0.847
 pw_zero                           2512 10.6    0.721    0.816    0.721    0.816
 hybrid_alltoall_any               3894 13.4    0.036    0.044    0.777    0.805
 yz_to_xz                           462 14.0    0.041    0.047    0.690    0.726
 mp_alltoall_i22                   4470 11.4    0.551    0.686    0.551    0.686
 integrate_four_center_getP         391 10.8    0.129    0.139    0.673    0.681
 make_images                       2794 12.3    0.157    0.161    0.644    0.679
 integrate_four_center_dist_KS      391 10.8    0.130    0.141    0.662    0.665
 offload_free_buffer                239 10.1    0.553    0.661    0.553    0.661
 integrate_four_center_main         391 10.8    0.046    0.087    0.502    0.641
 pw_poisson_rebuild                 231 10.4    0.000    0.000    0.563    0.587
 ps_wavelet_create                    1 10.0    0.000    0.000    0.563    0.587
 RS_z_slice_distribution              1 11.0    0.497    0.548    0.563    0.587
 integrate_four_center_bin        31685 11.8    0.456    0.554    0.456    0.554
 cp_fm_geeig                         20  7.0    0.001    0.001    0.548    0.549
 xc_2nd_deriv_of_r                 1280 10.0    0.002    0.092    0.009    0.544
 fft_wrap_pw1pw2_10                 464 11.9    0.005    0.005    0.523    0.530
 qs_energies_init_hamiltonians        1  3.0    0.000    0.000    0.529    0.529
 calculate_dm_sparse                 71  6.0    0.001    0.001    0.513    0.522
 build_core_hamiltonian_matrix        1  4.0    0.000    0.000    0.517    0.517
 overlap_condnum                      1  5.0    0.000    0.000    0.514    0.515
 mp_bcast_i_src                    1184  7.0    0.297    0.452    0.297    0.452
 mp_bcast_am_src                    296  7.0    0.312    0.360    0.346    0.416
 arnoldi_conjugate_gradient           5  6.0    0.009    0.011    0.410    0.410
 xz_to_yz                           466 13.8    0.027    0.032    0.401    0.407
 mp_rank_compare                   4705 14.0    0.385    0.404    0.385    0.404
 calculate_rho_atom_coeff           233  8.8    0.032    0.061    0.347    0.347
 multiply_cannon_metrocomm3       50292 13.3    0.081    0.087    0.222    0.336
 cp_fm_trace_a1b1t1_aa            13090  8.0    0.061    0.066    0.329    0.332
 update_ks_atom                     231  8.7    0.027    0.045    0.253    0.322
 init_scf_run                         1  3.0    0.000    0.000    0.306    0.307
 multiply_cannon_metrocomm4       47498 13.3    0.139    0.154    0.267    0.305
 mp_sum_l                          5405 10.5    0.255    0.287    0.255    0.287
 mp_bcast_dm                       6468  9.7    0.226    0.284    0.226    0.284
 make_images_sizes                 2794 13.3    0.003    0.004    0.266    0.280
 prepare_dr1dr                     1440 11.1    0.239    0.279    0.239    0.279
 scf_env_initial_rho_setup            1  4.0    0.000    0.000    0.277    0.278
 mp_alltoall_i44                   2794 14.3    0.263    0.277    0.263    0.277
 multiply_cannon_metrocomm2       46101 13.3    0.136    0.150    0.243    0.275
 dbcsr_finalize                    9071 11.4    0.039    0.064    0.176    0.266
 scale_and_distribute               462 11.4    0.233    0.259    0.233    0.259
 dbcsr_sym_matrix_vector_mult      1358  7.0    0.022    0.026    0.213    0.250
 mp_cart_sub                       2202 11.3    0.242    0.243    0.242    0.243
 tddfpt_construct_ground_state_       1  6.0    0.000    0.000    0.209    0.210
 qs_init_subsys                       1  2.0    0.003    0.004    0.199    0.199
 qs_env_setup                         1  3.0    0.000    0.000    0.190    0.191
 qs_env_rebuild_pw_env                2  3.5    0.000    0.000    0.189    0.190
 pw_env_rebuild                       1  5.0    0.001    0.001    0.189    0.189
 multiply_cannon_metrocomm1       50292 13.3    0.058    0.059    0.139    0.187
 mp_cart_create                    2028 10.6    0.162    0.176    0.164    0.179
 rs_scatter_matrices                233  9.8    0.002    0.004    0.164    0.169
 dbcsr_create_new                 34532 11.6    0.122    0.128    0.158    0.166
 vxc_of_r_new                       568  9.0    0.000    0.024    0.003    0.161
 cp_fm_redistribute_start           121  8.2    0.117    0.120    0.147    0.158
 multiply_cannon_multrec          50292 13.3    0.070    0.146    0.076    0.152
 mp_allgather_i34                  1397 12.3    0.132    0.152    0.132    0.152
 dbcsr_merge_all                   7216 12.4    0.076    0.108    0.099    0.151
 pw_grid_setup                        4  6.0    0.000    0.000    0.146    0.147
 pw_grid_setup_internal               4  7.0    0.003    0.004    0.146    0.147
 integrate_four_center_load         391 10.8    0.001    0.002    0.115    0.146
 hfx_load_balance                     1 11.0    0.000    0.000    0.114    0.145
 make_images_data                  2794 13.3    0.035    0.048    0.082    0.142
 mp_irecv_dv                     149337 13.8    0.101    0.131    0.101    0.131
 dbcsr_add_d                       2093  7.1    0.002    0.003    0.019    0.127
 tddfpt_compute_ritz_vects            8  7.0    0.006    0.006    0.125    0.125
 dbcsr_add_anytype                 2093  8.1    0.003    0.017    0.017    0.125
 hfx_load_balance_range               1 12.0    0.000    0.000    0.094    0.124
 pw_scale                           604  9.5    0.095    0.112    0.095    0.112
 cube_transpose_2                   466 13.8    0.009    0.010    0.095    0.104
 rs_grid_create                     237 10.3    0.001    0.002    0.010    0.103
 create_kernel_env                    1  6.0    0.000    0.000    0.094    0.103
 xc_prep_2nd_deriv                    1  7.0    0.000    0.000    0.094    0.103
 dbcsr_col_vec_to_rep_row          1358  8.0    0.010    0.012    0.069    0.103
 offload_create_buffer              239 11.2    0.009    0.102    0.009    0.102
 dbcsr_special_finalize            6985 13.3    0.027    0.029    0.077    0.101
 tddfpt_orthogonalize_psi1_psi0       9  6.9    0.000    0.000    0.086    0.098
 dbcsr_rep_row_to_rep_col_vec      1358  8.0    0.007    0.008    0.040    0.094
 cube_transpose_1                   462 14.0    0.008    0.009    0.083    0.089
 dbcsr_iterator_start             40616 10.9    0.050    0.067    0.062    0.086
 mp_isend_iv                     101814 14.3    0.075    0.084    0.075    0.084
 copy_fm_to_dbcsr_bc               2269 10.5    0.025    0.028    0.073    0.081
 calculate_rho0_atom                928  9.7    0.077    0.078    0.077    0.078
 mp_bcast_iv_src                    296  7.0    0.026    0.076    0.026    0.076
 mp_bcast_iv                        321  7.5    0.034    0.075    0.034    0.075
 mp_bcast_dv                       1479  9.0    0.035    0.073    0.035    0.073
 dbcsr_copy                        9000  8.8    0.029    0.035    0.061    0.071
 pw_grid_sort                         4  8.0    0.043    0.045    0.067    0.070
 dbcsr_merge_single_wm             6985 14.3    0.034    0.042    0.041    0.064
 dbcsr_destroy                    31749 11.0    0.041    0.043    0.058    0.063
 dbcsr_make_images_dense            782 11.6    0.014    0.016    0.038    0.062
 dbcsr_work_create                15301 12.5    0.032    0.040    0.048    0.062
 mixing_init                          1  5.0    0.041    0.061    0.060    0.061
 mp_cart_rank                    200052 10.9    0.053    0.059    0.053    0.059
 cp_fm_cholesky_decompose            20  8.0    0.058    0.058    0.058    0.058
 dbcsr_data_new                  107607 12.6    0.049    0.056    0.049    0.056
 dbcsr_iterator_stop              40616 10.9    0.036    0.045    0.044    0.055
 dbcsr_data_release              167652 12.5    0.046    0.055    0.046    0.055
 scf_post_calculation_gpw             1  3.0    0.000    0.000    0.053    0.053
 write_available_results              1  4.0    0.000    0.000    0.052    0.052
 write_mo_free_results                1  5.0    0.003    0.003    0.052    0.052
 cp_fm_symm                          71  7.0    0.048    0.052    0.048    0.052
 tddfpt_is_nonorthogonal_psi1_p       7  7.0    0.000    0.001    0.050    0.050
 dbcsr_work_destroy_all           15301 13.4    0.029    0.036    0.039    0.050
 mp_irecv_iv                     102820 14.3    0.041    0.048    0.041    0.048
 cp_fm_triangular_invert             20  8.0    0.045    0.046    0.045    0.046
 cp_fm_triangular_multiply           60  8.0    0.042    0.043    0.042    0.043
 dbcsr_make_dense_low              1955 12.6    0.010    0.010    0.015    0.038
 setup_buffer_matrices             2794 12.3    0.011    0.012    0.035    0.037
 compute_max_radius                   1  6.0    0.017    0.036    0.017    0.036
 cp_fm_power                          1  6.0    0.000    0.000    0.036    0.036
 mp_maxloc_dv                      1251  1.0    0.031    0.033    0.031    0.033
 mp_max_d                           213  8.3    0.025    0.033    0.025    0.033
 mp_sum_im                          126  9.0    0.025    0.032    0.025    0.032
 cp_fm_write_unformatted             24  7.0    0.022    0.029    0.022    0.030
 tddfpt_dipole_operator               1  5.0    0.000    0.000    0.028    0.028
 mp_sum_iv                          704  7.5    0.022    0.028    0.022    0.028
 pw_pool_create_pw                 8056 10.7    0.018    0.020    0.024    0.027
 dbcsr_crop_matrix                  355 10.0    0.002    0.003    0.026    0.027
 tddfpt_print_excitation_analys       1  6.0    0.000    0.007    0.025    0.026
 sort_shells                          4  9.0    0.024    0.026    0.024    0.026
 -------------------------------------------------------------------------------

 The number of warnings for this run is : 1
 
 -------------------------------------------------------------------------------
  **** **** ******  **  PROGRAM ENDED AT                 2025-04-02 20:29:21.969
 ***** ** ***  *** **   PROGRAM RAN ON                              i06r08c04s06
 **    ****   ******    PROGRAM RAN BY                                   di38fab
 ***** **    ** ** **   PROGRAM PROCESS ID                                104609
  **** **  *******  **  PROGRAM STOPPED IN /hppfs/scratch/04/di38fab/07_MOL_non_
                                           aug/05_MOL_non_aug/05_MOL/aUKBqsEOTmq
                                           69kFe5R_nOg/5k_set_final_qzvp/WAQBOG/
                                           cc-pVDZ/TDDFT
