SIRIUS 7.6.1, git hash: https://api.github.com/repos/electronic-structure/SIRIUS/git/ref/tags/v7.6.1
 DBCSR| CPU Multiplication driver                                           XSMM (U)
 DBCSR| Multrec recursion limit                                              512 (U)
 DBCSR| Multiplication stack size                                           1000 (D)
 DBCSR| Maximum elements for images                                    UNLIMITED (U)
 DBCSR| Multiplicative factor virtual images                                   1 (U)
 DBCSR| Use multiplication densification                                       T (D)
 DBCSR| Multiplication size stacks                                             3 (U)
 DBCSR| Use memory pool for CPU allocation                                     F (U)
 DBCSR| Number of 3D layers                                               SINGLE (U)
 DBCSR| Use MPI memory allocation                                              F (U)
 DBCSR| Use RMA algorithm                                                      F (U)
 DBCSR| Use Communication thread                                               T (U)
 DBCSR| Communication thread load                                             60 (D)
 DBCSR| MPI: My process id                                                     0
 DBCSR| MPI: Number of processes                                              80
 DBCSR| OMP: Current number of threads                                         8
 DBCSR| OMP: Max number of threads                                             8
 DBCSR| Split modifier for TAS multiplication algorithm                  1.0E+00 (U)


  **** **** ******  **  PROGRAM STARTED AT               2025-05-05 02:48:15.428
 ***** ** ***  *** **   PROGRAM STARTED ON                 n2cn0190.ab2021.local
 **    ****   ******    PROGRAM STARTED BY                              metdyn02
 ***** **    ** ** **   PROGRAM PROCESS ID                               3595305
  **** **  *******  **  PROGRAM STARTED IN /scratch/hpc-prf-metdyn/metdyn02_Remi
                                           /10_MOL/05_MOL/aUKBqsEOTmq69kFe5R_nOg
                                           /5k_set_final_qzvp/LUHLOP/SZV/GW+BSE/
                                           RILIM

 CP2K| version string:                 CP2K version 2025.1 (Development Version)
 CP2K| source code revision number:                                  git:4803c37
 CP2K| cp2kflags: omp libint fftw3 libxc libgrpp elpa parallel scalapack mpi_f08
 CP2K|             cosma xsmm plumed2 spglib sirius libvori libbqb libvdwxc hdf5
 CP2K| is freely available from                            https://www.cp2k.org/
 CP2K| Program compiled at                         Thu Apr 10 12:05:05 CEST 2025
 CP2K| Program compiled on                                              n2login1
 CP2K| Program compiled for                                                local
 CP2K| Data directory path    /opt/software/pc2/EB-SW/software/CP2K/2024.1-foss-
 CP2K| Input file name                                                    GW.inp

 GLOBAL| Force Environment number                                              1
 GLOBAL| Basis set file name            /scratch/hpc-prf-metdyn/metdyn02_Remi/BA
 GLOBAL| Potential file name            /pc2/groups/hpc-prf-metdyn/metdyn02_Remi
 GLOBAL| MM Potential file name                                     MM_POTENTIAL
 GLOBAL| Coordinate file name                                      __STD_INPUT__
 GLOBAL| Method name                                                        CP2K
 GLOBAL| Project name                                                       MoS2
 GLOBAL| Run type                                                         ENERGY
 GLOBAL| FFT library                                                       FFTW3
 GLOBAL| Diagonalization library                                            ELPA
 GLOBAL| DGEMM library                                                      BLAS
 GLOBAL| Minimum number of eigenvectors for ELPA usage                        16
 GLOBAL| Orthonormality check for eigenvectors                          DISABLED
 GLOBAL| Matrix multiplication library                                     COSMA
 GLOBAL| All-to-all communication in single precision                          F
 GLOBAL| FFTs using library dependent lengths                                  F
 GLOBAL| Grid backend                                                       AUTO
 GLOBAL| Global print level                                               MEDIUM
 GLOBAL| MPI I/O enabled                                                       T
 GLOBAL| Total number of message passing processes                            80
 GLOBAL| Number of threads for this process                                    8
 GLOBAL| This output is from process                                           0
 GLOBAL| OpenMP stack size per thread (OMP_STACKSIZE)                    default
 GLOBAL| CPU model name                          AMD EPYC 7763 64-Core Processor
 GLOBAL| CPUID                                                              1002

 MEMORY| system memory details [Kb]
 MEMORY|                        rank 0           min           max       average
 MEMORY| MemTotal            263899260     263899252     263899264     263899262
 MEMORY| MemFree             247313956     247236352     255094640     250941939
 MEMORY| Buffers                184344         24956        330256        144138
 MEMORY| Cached                8347580       4032232       9598256       6140764
 MEMORY| Slab                  2833588       1487096       2833588       2158538
 MEMORY| SReclaimable           770108        220132        770108        397011
 MEMORY| MemLikelyFree       256615988     256598984     259397092     257623854


 *** Fundamental physical constants (SI units) ***

 *** Literature: B. J. Mohr and B. N. Taylor,
 ***             CODATA recommended values of the fundamental physical
 ***             constants: 2006, Web Version 5.1
 ***             http://physics.nist.gov/constants

 Speed of light in vacuum [m/s]                             2.99792458000000E+08
 Magnetic constant or permeability of vacuum [N/A**2]       1.25663706143592E-06
 Electric constant or permittivity of vacuum [F/m]          8.85418781762039E-12
 Planck constant (h) [J*s]                                  6.62606896000000E-34
 Planck constant (h-bar) [J*s]                              1.05457162825177E-34
 Elementary charge [C]                                      1.60217648700000E-19
 Electron mass [kg]                                         9.10938215000000E-31
 Electron g factor [ ]                                     -2.00231930436220E+00
 Proton mass [kg]                                           1.67262163700000E-27
 Fine-structure constant                                    7.29735253760000E-03
 Rydberg constant [1/m]                                     1.09737315685270E+07
 Avogadro constant [1/mol]                                  6.02214179000000E+23
 Boltzmann constant [J/K]                                   1.38065040000000E-23
 Atomic mass unit [kg]                                      1.66053878200000E-27
 Bohr radius [m]                                            5.29177208590000E-11

 *** Conversion factors ***

 [u] -> [a.u.]                                              1.82288848426455E+03
 [Angstrom] -> [Bohr] = [a.u.]                              1.88972613288564E+00
 [a.u.] = [Bohr] -> [Angstrom]                              5.29177208590000E-01
 [a.u.] -> [s]                                              2.41888432650478E-17
 [a.u.] -> [fs]                                             2.41888432650478E-02
 [a.u.] -> [J]                                              4.35974393937059E-18
 [a.u.] -> [N]                                              8.23872205491840E-08
 [a.u.] -> [K]                                              3.15774647902944E+05
 [a.u.] -> [kJ/mol]                                         2.62549961709828E+03
 [a.u.] -> [kcal/mol]                                       6.27509468713739E+02
 [a.u.] -> [Pa]                                             2.94210107994716E+13
 [a.u.] -> [bar]                                            2.94210107994716E+08
 [a.u.] -> [atm]                                            2.90362800883016E+08
 [a.u.] -> [eV]                                             2.72113838565563E+01
 [a.u.] -> [Hz]                                             6.57968392072181E+15
 [a.u.] -> [1/cm] (wave numbers)                            2.19474631370540E+05
 [a.u./Bohr**2] -> [1/cm]                                   5.14048714338585E+03
 

 CELL_TOP| Volume [angstrom^3]:                                     27000.000000
 CELL_TOP| Vector a [angstrom    30.000     0.000     0.000   |a| =    30.000000
 CELL_TOP| Vector b [angstrom     0.000    30.000     0.000   |b| =    30.000000
 CELL_TOP| Vector c [angstrom     0.000     0.000    30.000   |c| =    30.000000
 CELL_TOP| Angle (b,c), alpha [degree]:                                90.000000
 CELL_TOP| Angle (a,c), beta  [degree]:                                90.000000
 CELL_TOP| Angle (a,b), gamma [degree]:                                90.000000
 CELL_TOP| Numerically orthorhombic:                                         YES
 CELL_TOP| Periodicity                                                      NONE

 GENERATE|  Preliminary Number of Bonds generated:                             0
 GENERATE|  Achieved consistency in connectivity generation.

 CELL| Volume [angstrom^3]:                                         27000.000000
 CELL| Vector a [angstrom]:      30.000     0.000     0.000   |a| =    30.000000
 CELL| Vector b [angstrom]:       0.000    30.000     0.000   |b| =    30.000000
 CELL| Vector c [angstrom]:       0.000     0.000    30.000   |c| =    30.000000
 CELL| Angle (b,c), alpha [degree]:                                    90.000000
 CELL| Angle (a,c), beta  [degree]:                                    90.000000
 CELL| Angle (a,b), gamma [degree]:                                    90.000000
 CELL| Numerically orthorhombic:                                             YES
 CELL| Periodicity                                                          NONE

 CELL_REF| Volume [angstrom^3]:                                     27000.000000
 CELL_REF| Vector a [angstrom    30.000     0.000     0.000   |a| =    30.000000
 CELL_REF| Vector b [angstrom     0.000    30.000     0.000   |b| =    30.000000
 CELL_REF| Vector c [angstrom     0.000     0.000    30.000   |c| =    30.000000
 CELL_REF| Angle (b,c), alpha [degree]:                                90.000000
 CELL_REF| Angle (a,c), beta  [degree]:                                90.000000
 CELL_REF| Angle (a,b), gamma [degree]:                                90.000000
 CELL_REF| Numerically orthorhombic:                                         YES
 CELL_REF| Periodicity                                                      NONE

 *******************************************************************************
 *******************************************************************************
 **                                                                           **
 **     #####                         ##              ##                      **
 **    ##   ##            ##          ##              ##                      **
 **   ##     ##                       ##            ######                    **
 **   ##     ##  ##   ##  ##   #####  ##  ##   ####   ##    #####    #####    **
 **   ##     ##  ##   ##  ##  ##      ## ##   ##      ##   ##   ##  ##   ##   **
 **   ##  ## ##  ##   ##  ##  ##      ####     ###    ##   ######   ######    **
 **    ##  ###   ##   ##  ##  ##      ## ##      ##   ##   ##       ##        **
 **     #######   #####   ##   #####  ##  ##  ####    ##    #####   ##        **
 **           ##                                                    ##        **
 **                                                                           **
 **                                                ... make the atoms dance   **
 **                                                                           **
 **            Copyright (C) by CP2K developers group (2000-2025)             **
 **                      J. Chem. Phys. 152, 194103 (2020)                    **
 **                                                                           **
 *******************************************************************************

 DFT| Spin restricted Kohn-Sham (RKS) calculation                            RKS
 DFT| Multiplicity                                                             1
 DFT| Number of spin states                                                    1
 DFT| Charge                                                                   0
 DFT| Self-interaction correction (SIC)                                       NO
 DFT| Cutoffs: density                                              1.000000E-10
 DFT|          gradient                                             1.000000E-10
 DFT|          tau                                                  1.000000E-10
 DFT|          cutoff_smoothing_range                               0.000000E+00
 DFT| XC density smoothing                                                  NONE
 DFT| XC derivatives                                                          PW

 FUNCTIONAL| PBE:
 FUNCTIONAL| J.P.Perdew, K.Burke, M.Ernzerhof, Phys. Rev. Letter, vol. 77, n 18,
 FUNCTIONAL|  pp. 3865-3868, (1996)sx=0.750sc=1.000{spin unpolarized}           


 QS| Method:                                                                GAPW
 QS| Density plane wave grid type                        NON-SPHERICAL FULLSPACE
 QS| Number of grid levels:                                                    4
 QS| Density cutoff [a.u.]:                                                250.0
 QS| Multi grid cutoff [a.u.]: 1) grid level                               250.0
 QS|                           2) grid level                                83.3
 QS|                           3) grid level                                27.8
 QS|                           4) grid level                                 9.3
 QS| Grid level progression factor:                                          3.0
 QS| Relative density cutoff [a.u.]:                                        50.0
 QS| Interaction thresholds: eps_pgf_orb:                                1.0E-12
 QS|                         eps_filter_matrix:                          0.0E+00
 QS|                         eps_core_charge:                            1.0E-14
 QS|                         eps_rho_gspace:                             1.0E-12
 QS|                         eps_rho_rspace:                             1.0E-12
 QS|                         eps_gvg_rspace:                             1.0E-06
 QS|                         eps_ppl:                                    1.0E-02
 QS|                         eps_ppnl:                                   1.0E-08
 QS| GAPW|      One center basis from orbital basis primitives
 QS| GAPW|                   eps_fit:                                    1.0E-04
 QS| GAPW|                   eps_iso:                                    1.0E-12
 QS| GAPW|                   eps_svd:                                    1.0E-08
 QS| GAPW|                   eps_cpc:                                    1.0E-12
 QS| GAPW|   atom-r-grid: quadrature:                                     GC_LOG
 QS| GAPW|      atom-s-grid:  max l :                                          4
 QS| GAPW|      max_l_rho0 :                                                   2


 ATOMIC KIND INFORMATION

  1. Atomic kind: Cl                                    Number of atoms:       2

     Orbital Basis Set                                         aug-SZV-MOLOPT-ae

       Number of orbital shell sets:                                           3
       Number of orbital shells:                                               8
       Number of primitive Cartesian functions:                               19
       Number of Cartesian basis functions:                                   19
       Number of spherical basis functions:                                   18
       Norm type:                                                              2

       Normalised Cartesian orbitals:

                        Set   Shell   Orbital            Exponent    Coefficient

                          1       1    1s                0.077000       0.000000
                                                         0.155732       0.048775
                                                         0.302177       0.213641
                                                         0.610646       0.074372
                                                         1.364210      -0.160589
                                                         3.637791      -0.133295
                                                        13.583529      -0.040055

                          1       2    2s                0.077000       0.113098
                                                         0.155732      -0.001418
                                                         0.302177      -0.032953
                                                         0.610646       0.000940
                                                         1.364210      -0.000650
                                                         3.637791      -0.006480
                                                        13.583529       0.000000

                          1       3    2px               0.077000       0.000000
                                                         0.155732       0.014765
                                                         0.302177       0.156150
                                                         0.610646       0.318942
                                                         1.364210       0.160173
                                                         3.637791      -0.130999
                                                        13.583529      -0.265378
                          1       3    2py               0.077000       0.000000
                                                         0.155732       0.014765
                                                         0.302177       0.156150
                                                         0.610646       0.318942
                                                         1.364210       0.160173
                                                         3.637791      -0.130999
                                                        13.583529      -0.265378
                          1       3    2pz               0.077000       0.000000
                                                         0.155732       0.014765
                                                         0.302177       0.156150
                                                         0.610646       0.318942
                                                         1.364210       0.160173
                                                         3.637791      -0.130999
                                                        13.583529      -0.265378

                          1       4    3px               0.077000       0.044533
                                                         0.155732       0.031887
                                                         0.302177       0.011087
                                                         0.610646      -0.025806
                                                         1.364210       0.119111
                                                         3.637791       0.324938
                                                        13.583529       0.000000
                          1       4    3py               0.077000       0.044533
                                                         0.155732       0.031887
                                                         0.302177       0.011087
                                                         0.610646      -0.025806
                                                         1.364210       0.119111
                                                         3.637791       0.324938
                                                        13.583529       0.000000
                          1       4    3pz               0.077000       0.044533
                                                         0.155732       0.031887
                                                         0.302177       0.011087
                                                         0.610646      -0.025806
                                                         1.364210       0.119111
                                                         3.637791       0.324938
                                                        13.583529       0.000000

                          1       5    3dx2              0.077000       0.003672
                                                         0.155732       0.001893
                                                         0.302177       0.117944
                                                         0.610646       0.097225
                                                         1.364210       0.782555
                                                         3.637791       0.872236
                                                        13.583529       0.000000
                          1       5    3dxy              0.077000       0.006359
                                                         0.155732       0.003279
                                                         0.302177       0.204285
                                                         0.610646       0.168398
                                                         1.364210       1.355425
                                                         3.637791       1.510758
                                                        13.583529       0.000000
                          1       5    3dxz              0.077000       0.006359
                                                         0.155732       0.003279
                                                         0.302177       0.204285
                                                         0.610646       0.168398
                                                         1.364210       1.355425
                                                         3.637791       1.510758
                                                        13.583529       0.000000
                          1       5    3dy2              0.077000       0.003672
                                                         0.155732       0.001893
                                                         0.302177       0.117944
                                                         0.610646       0.097225
                                                         1.364210       0.782555
                                                         3.637791       0.872236
                                                        13.583529       0.000000
                          1       5    3dyz              0.077000       0.006359
                                                         0.155732       0.003279
                                                         0.302177       0.204285
                                                         0.610646       0.168398
                                                         1.364210       1.355425
                                                         3.637791       1.510758
                                                        13.583529       0.000000
                          1       5    3dz2              0.077000       0.003672
                                                         0.155732       0.001893
                                                         0.302177       0.117944
                                                         0.610646       0.097225
                                                         1.364210       0.782555
                                                         3.637791       0.872236
                                                        13.583529       0.000000

                          2       1    1s              403.972966      -0.851102
                                                        79.956793      -0.895515
                                                        24.850512      -0.268003
                                                         9.560888       0.969714
                                                         4.152300       1.233756
                                                         1.903303       0.277989

                          2       2    2px             403.972966       9.705843
                                                        79.956793      12.841416
                                                        24.850512      13.753103
                                                         9.560888      10.017907
                                                         4.152300       3.598052
                                                         1.903303       0.324102
                          2       2    2py             403.972966       9.705843
                                                        79.956793      12.841416
                                                        24.850512      13.753103
                                                         9.560888      10.017907
                                                         4.152300       3.598052
                                                         1.903303       0.324102
                          2       2    2pz             403.972966       9.705843
                                                        79.956793      12.841416
                                                        24.850512      13.753103
                                                         9.560888      10.017907
                                                         4.152300       3.598052
                                                         1.903303       0.324102

                          3       1    1s             6236.545525       4.583362
                                                      1143.463795       6.917755
                                                       319.899964       9.085929
                                                       109.894271       8.964028
                                                        42.675161       4.956187
                                                        17.575988       0.797366

     RI Auxiliary Basis Set             RI_aug-SZV-MOLOPT-ae_N_RI_112_s_p_d_f_g_

       Number of orbital shell sets:                                          24
       Number of orbital shells:                                              24
       Number of primitive Cartesian functions:                               24
       Number of Cartesian basis functions:                                  167
       Number of spherical basis functions:                                  112
       Norm type:                                                              2

       Normalised Cartesian orbitals:

                        Set   Shell   Orbital            Exponent    Coefficient

                          1       1   20gx4              0.279015       0.033259
                          1       1   20gx3y             0.279015       0.087996
                          1       1   20gx3z             0.279015       0.087996
                          1       1   20gx2y2            0.279015       0.113602
                          1       1   20gx2yz            0.279015       0.196764
                          1       1   20gx2z2            0.279015       0.113602
                          1       1   20gxy3             0.279015       0.087996
                          1       1   20gxy2z            0.279015       0.196764
                          1       1   20gxyz2            0.279015       0.196764
                          1       1   20gxz3             0.279015       0.087996
                          1       1   20gy4              0.279015       0.033259
                          1       1   20gy3z             0.279015       0.087996
                          1       1   20gy2z2            0.279015       0.113602
                          1       1   20gyz3             0.279015       0.087996
                          1       1   20gz4              0.279015       0.033259

                          2       1    8px               0.330765       0.357552
                          2       1    8py               0.330765       0.357552
                          2       1    8pz               0.330765       0.357552

                          3       1    1s                0.339703       0.317128

                          4       1   14dx2              0.562661       0.601646
                          4       1   14dxy              0.562661       1.042081
                          4       1   14dxz              0.562661       1.042081
                          4       1   14dy2              0.562661       0.601646
                          4       1   14dyz              0.562661       1.042081
                          4       1   14dz2              0.562661       0.601646

                          5       1   17fx3              0.671109       0.600120
                          5       1   17fx2y             0.671109       1.341909
                          5       1   17fx2z             0.671109       1.341909
                          5       1   17fxy2             0.671109       1.341909
                          5       1   17fxyz             0.671109       2.324255
                          5       1   17fxz2             0.671109       1.341909
                          5       1   17fy3              0.671109       0.600120
                          5       1   17fy2z             0.671109       1.341909
                          5       1   17fyz2             0.671109       1.341909
                          5       1   17fz3              0.671109       0.600120

                          6       1    2s                0.711571       0.552172

                          7       1    9px               0.728662       0.959616
                          7       1    9py               0.728662       0.959616
                          7       1    9pz               0.728662       0.959616

                          8       1   21gx4              1.066208       1.327398
                          8       1   21gx3y             1.066208       3.511964
                          8       1   21gx3z             1.066208       3.511964
                          8       1   21gx2y2            1.066208       4.533926
                          8       1   21gx2yz            1.066208       7.852990
                          8       1   21gx2z2            1.066208       4.533926
                          8       1   21gxy3             1.066208       3.511964
                          8       1   21gxy2z            1.066208       7.852990
                          8       1   21gxyz2            1.066208       7.852990
                          8       1   21gxz3             1.066208       3.511964
                          8       1   21gy4              1.066208       1.327398
                          8       1   21gy3z             1.066208       3.511964
                          8       1   21gy2z2            1.066208       4.533926
                          8       1   21gyz3             1.066208       3.511964
                          8       1   21gz4              1.066208       1.327398

                          9       1   15dx2              1.149113       2.099155
                          9       1   15dxy              1.149113       3.635843
                          9       1   15dxz              1.149113       3.635843
                          9       1   15dy2              1.149113       2.099155
                          9       1   15dyz              1.149113       3.635843
                          9       1   15dz2              1.149113       2.099155

                         10       1   18fx3              1.633659       4.441887
                         10       1   18fx2y             1.633659       9.932362
                         10       1   18fx2z             1.633659       9.932362
                         10       1   18fxy2             1.633659       9.932362
                         10       1   18fxyz             1.633659      17.203356
                         10       1   18fxz2             1.633659       9.932362
                         10       1   18fy3              1.633659       4.441887
                         10       1   18fy2z             1.633659       9.932362
                         10       1   18fyz2             1.633659       9.932362
                         10       1   18fz3              1.633659       4.441887

                         11       1   23hx5              1.666224       3.899222
                         11       1   23hx4y             1.666224      11.697667
                         11       1   23hx4z             1.666224      11.697667
                         11       1   23hx3y2            1.666224      17.868481
                         11       1   23hx3yz            1.666224      30.949117
                         11       1   23hx3z2            1.666224      17.868481
                         11       1   23hx2y3            1.666224      17.868481
                         11       1   23hx2y2z           1.666224      39.955139
                         11       1   23hx2yz2           1.666224      39.955139
                         11       1   23hx2z3            1.666224      17.868481
                         11       1   23hxy4             1.666224      11.697667
                         11       1   23hxy3z            1.666224      30.949117
                         11       1   23hxy2z2           1.666224      39.955139
                         11       1   23hxyz3            1.666224      30.949117
                         11       1   23hxz4             1.666224      11.697667
                         11       1   23hy5              1.666224       3.899222
                         11       1   23hy4z             1.666224      11.697667
                         11       1   23hy3z2            1.666224      17.868481
                         11       1   23hy2z3            1.666224      17.868481
                         11       1   23hyz4             1.666224      11.697667
                         11       1   23hz5              1.666224       3.899222

                         12       1   24ix6              1.924248       5.207825
                         12       1   24ix5y             1.924248      17.272401
                         12       1   24ix5z             1.924248      17.272401
                         12       1   24ix4y2            1.924248      29.916676
                         12       1   24ix4yz            1.924248      51.817204
                         12       1   24ix4z2            1.924248      29.916676
                         12       1   24ix3y3            1.924248      35.397889
                         12       1   24ix3y2z           1.924248      79.152086
                         12       1   24ix3yz2           1.924248      79.152086
                         12       1   24ix3z3            1.924248      35.397889
                         12       1   24ix2y4            1.924248      29.916676
                         12       1   24ix2y3z           1.924248      79.152086
                         12       1   24ix2y2z2          1.924248     102.184904
                         12       1   24ix2yz3           1.924248      79.152086
                         12       1   24ix2z4            1.924248      29.916676
                         12       1   24ixy5             1.924248      17.272401
                         12       1   24ixy4z            1.924248      51.817204
                         12       1   24ixy3z2           1.924248      79.152086
                         12       1   24ixy2z3           1.924248      79.152086
                         12       1   24ixyz4            1.924248      51.817204
                         12       1   24ixz5             1.924248      17.272401
                         12       1   24iy6              1.924248       5.207825
                         12       1   24iy5z             1.924248      17.272401
                         12       1   24iy4z2            1.924248      29.916676
                         12       1   24iy3z3            1.924248      35.397889
                         12       1   24iy2z4            1.924248      29.916676
                         12       1   24iyz5             1.924248      17.272401
                         12       1   24iz6              1.924248       5.207825

                         13       1   22gx4              2.220982       9.986982
                         13       1   22gx3y             2.220982      26.423072
                         13       1   22gx3z             2.220982      26.423072
                         13       1   22gx2y2            2.220982      34.112039
                         13       1   22gx2yz            2.220982      59.083785
                         13       1   22gx2z2            2.220982      34.112039
                         13       1   22gxy3             2.220982      26.423072
                         13       1   22gxy2z            2.220982      59.083785
                         13       1   22gxyz2            2.220982      59.083785
                         13       1   22gxz3             2.220982      26.423072
                         13       1   22gy4              2.220982       9.986982
                         13       1   22gy3z             2.220982      26.423072
                         13       1   22gy2z2            2.220982      34.112039
                         13       1   22gyz3             2.220982      26.423072
                         13       1   22gz4              2.220982       9.986982

                         14       1    3s                2.450225       1.395772

                         15       1   10px               3.102999       5.870393
                         15       1   10py               3.102999       5.870393
                         15       1   10pz               3.102999       5.870393

                         16       1   19fx3              7.124016     122.063406
                         16       1   19fx2y             7.124016     272.942072
                         16       1   19fx2z             7.124016     272.942072
                         16       1   19fxy2             7.124016     272.942072
                         16       1   19fxyz             7.124016     472.749537
                         16       1   19fxz2             7.124016     272.942072
                         16       1   19fy3              7.124016     122.063406
                         16       1   19fy2z             7.124016     272.942072
                         16       1   19fyz2             7.124016     272.942072
                         16       1   19fz3              7.124016     122.063406

                         17       1    4s                8.846809       3.655948

                         18       1   11px              11.089446      28.845456
                         18       1   11py              11.089446      28.845456
                         18       1   11pz              11.089446      28.845456

                         19       1   16dx2             26.850040     521.270449
                         19       1   16dxy             26.850040     902.866903
                         19       1   16dxz             26.850040     902.866903
                         19       1   16dy2             26.850040     521.270449
                         19       1   16dyz             26.850040     902.866903
                         19       1   16dz2             26.850040     521.270449

                         20       1    5s               32.149471       9.622556

                         21       1   12px              38.748652     137.803687
                         21       1   12py              38.748652     137.803687
                         21       1   12pz              38.748652     137.803687

                         22       1    6s              116.893242      25.336822

                         23       1   13px             135.032822     656.129050
                         23       1   13py             135.032822     656.129050
                         23       1   13pz             135.032822     656.129050

                         24       1    7s              425.072226      66.720169

       Atomic covalent radius [Angstrom]:                                  0.990

       Atomic van der Waals radius [Angstrom]:                             1.750

     The atoms of this atomic kind are PAW atoms (GAPW):
       Hard Gaussian function radius:                                      1.512
       Rho0 radius:                                                        1.512
       Maximum GTO radius used for PAW projector construction:            24.566

     GAPW Soft Basis Set                                  aug-SZV-MOLOPT-ae_soft

       Number of orbital shell sets:                                           3
       Number of orbital shells:                                               8
       Number of primitive Cartesian functions:                                8
       Number of Cartesian basis functions:                                   19
       Number of spherical basis functions:                                   18
       Norm type:                                                              2

       Normalised Cartesian orbitals:

                        Set   Shell   Orbital            Exponent    Coefficient

                          1       1    1s                0.077000       0.000000
                                                         0.155732       0.048775
                                                         0.302177       0.213641
                                                         0.610646       0.074372
                                                         1.364210      -0.160589
                                                         3.637791      -0.133295

                          1       2    2s                0.077000       0.113098
                                                         0.155732      -0.001418
                                                         0.302177      -0.032953
                                                         0.610646       0.000940
                                                         1.364210      -0.000650
                                                         3.637791      -0.006480

                          1       3    2px               0.077000       0.000000
                                                         0.155732       0.014765
                                                         0.302177       0.156150
                                                         0.610646       0.318942
                                                         1.364210       0.160173
                                                         3.637791      -0.130999
                          1       3    2py               0.077000       0.000000
                                                         0.155732       0.014765
                                                         0.302177       0.156150
                                                         0.610646       0.318942
                                                         1.364210       0.160173
                                                         3.637791      -0.130999
                          1       3    2pz               0.077000       0.000000
                                                         0.155732       0.014765
                                                         0.302177       0.156150
                                                         0.610646       0.318942
                                                         1.364210       0.160173
                                                         3.637791      -0.130999

                          1       4    3px               0.077000       0.044533
                                                         0.155732       0.031887
                                                         0.302177       0.011087
                                                         0.610646      -0.025806
                                                         1.364210       0.119111
                                                         3.637791       0.324938
                          1       4    3py               0.077000       0.044533
                                                         0.155732       0.031887
                                                         0.302177       0.011087
                                                         0.610646      -0.025806
                                                         1.364210       0.119111
                                                         3.637791       0.324938
                          1       4    3pz               0.077000       0.044533
                                                         0.155732       0.031887
                                                         0.302177       0.011087
                                                         0.610646      -0.025806
                                                         1.364210       0.119111
                                                         3.637791       0.324938

                          1       5    3dx2              0.077000       0.003672
                                                         0.155732       0.001893
                                                         0.302177       0.117944
                                                         0.610646       0.097225
                                                         1.364210       0.782555
                                                         3.637791       0.872236
                          1       5    3dxy              0.077000       0.006359
                                                         0.155732       0.003279
                                                         0.302177       0.204285
                                                         0.610646       0.168398
                                                         1.364210       1.355425
                                                         3.637791       1.510758
                          1       5    3dxz              0.077000       0.006359
                                                         0.155732       0.003279
                                                         0.302177       0.204285
                                                         0.610646       0.168398
                                                         1.364210       1.355425
                                                         3.637791       1.510758
                          1       5    3dy2              0.077000       0.003672
                                                         0.155732       0.001893
                                                         0.302177       0.117944
                                                         0.610646       0.097225
                                                         1.364210       0.782555
                                                         3.637791       0.872236
                          1       5    3dyz              0.077000       0.006359
                                                         0.155732       0.003279
                                                         0.302177       0.204285
                                                         0.610646       0.168398
                                                         1.364210       1.355425
                                                         3.637791       1.510758
                          1       5    3dz2              0.077000       0.003672
                                                         0.155732       0.001893
                                                         0.302177       0.117944
                                                         0.610646       0.097225
                                                         1.364210       0.782555
                                                         3.637791       0.872236

                          2       1    1s                4.152300       0.000000
                                                         1.903303       0.277989

                          2       2    2px               4.152300       3.598052
                                                         1.903303       0.324102
                          2       2    2py               4.152300       3.598052
                                                         1.903303       0.324102
                          2       2    2pz               4.152300       3.598052
                                                         1.903303       0.324102

                          3       1    1s         

     AE Potential information for                                            ALL

       Description:                                       All-electron potential
                                          Krack, Parrinello, PCCP 2, 2105 (2000)

       Gaussian exponent of the core charge distribution:               2.974420
       Electronic configuration (s p d ...):                           6  11   0

  2. Atomic kind: O                                     Number of atoms:       3

     Orbital Basis Set                                         aug-SZV-MOLOPT-ae

       Number of orbital shell sets:                                           2
       Number of orbital shells:                                               6
       Number of primitive Cartesian functions:                               13
       Number of Cartesian basis functions:                                   15
       Number of spherical basis functions:                                   14
       Norm type:                                                              2

       Normalised Cartesian orbitals:

                        Set   Shell   Orbital            Exponent    Coefficient

                          1       1    1s                0.123000       0.000000
                                                         0.245881       0.059902
                                                         0.536420       0.265853
                                                         1.235135       0.208956
                                                         3.210345      -0.057750
                                                        10.329320      -0.192968
                                                        52.187762      -0.183398

                          1       2    2s                0.123000      -0.253465
                                                         0.245881       0.187097
                                                         0.536420       0.063592
                                                         1.235135       0.074938
                                                         3.210345       0.000000
                                                        10.329320       0.000000
                                                        52.187762       0.000000

                          1       3    2px               0.123000       0.000000
                                                         0.245881       0.025102
                                                         0.536420       0.278668
                                                         1.235135       0.775885
                                                         3.210345       1.065175
                                                        10.329320       0.994565
                                                        52.187762       0.751716
                          1       3    2py               0.123000       0.000000
                                                         0.245881       0.025102
                                                         0.536420       0.278668
                                                         1.235135       0.775885
                                                         3.210345       1.065175
                                                        10.329320       0.994565
                                                        52.187762       0.751716
                          1       3    2pz               0.123000       0.000000
                                                         0.245881       0.025102
                                                         0.536420       0.278668
                                                         1.235135       0.775885
                                                         3.210345       1.065175
                                                        10.329320       0.994565
                                                        52.187762       0.751716

                          1       4    3px               0.123000       0.048536
                                                         0.245881       0.257066
                                                         0.536420      -0.539300
                                                         1.235135      -0.153605
                                                         3.210345       0.000000
                                                        10.329320       0.000000
                                                        52.187762       0.000000
                          1       4    3py               0.123000       0.048536
                                                         0.245881       0.257066
                                                         0.536420      -0.539300
                                                         1.235135      -0.153605
                                                         3.210345       0.000000
                                                        10.329320       0.000000
                                                        52.187762       0.000000
                          1       4    3pz               0.123000       0.048536
                                                         0.245881       0.257066
                                                         0.536420      -0.539300
                                                         1.235135      -0.153605
                                                         3.210345       0.000000
                                                        10.329320       0.000000
                                                        52.187762       0.000000

                          1       5    3dx2              0.123000       0.022065
                                                         0.245881       0.038414
                                                         0.536420       0.100211
                                                         1.235135       0.626583
                                                         3.210345       0.000000
                                                        10.329320       0.000000
                                                        52.187762       0.000000
                          1       5    3dxy              0.123000       0.038217
                                                         0.245881       0.066534
                                                         0.536420       0.173571
                                                         1.235135       1.085274
                                                         3.210345       0.000000
                                                        10.329320       0.000000
                                                        52.187762       0.000000
                          1       5    3dxz              0.123000       0.038217
                                                         0.245881       0.066534
                                                         0.536420       0.173571
                                                         1.235135       1.085274
                                                         3.210345       0.000000
                                                        10.329320       0.000000
                                                        52.187762       0.000000
                          1       5    3dy2              0.123000       0.022065
                                                         0.245881       0.038414
                                                         0.536420       0.100211
                                                         1.235135       0.626583
                                                         3.210345       0.000000
                                                        10.329320       0.000000
                                                        52.187762       0.000000
                          1       5    3dyz              0.123000       0.038217
                                                         0.245881       0.066534
                                                         0.536420       0.173571
                                                         1.235135       1.085274
                                                         3.210345       0.000000
                                                        10.329320       0.000000
                                                        52.187762       0.000000
                          1       5    3dz2              0.123000       0.022065
                                                         0.245881       0.038414
                                                         0.536420       0.100211
                                                         1.235135       0.626583
                                                         3.210345       0.000000
                                                        10.329320       0.000000
                                                        52.187762       0.000000

                          2       1    1s             1355.584234       1.459053
                                                       248.544885       2.202176
                                                        69.533902       2.892385
                                                        23.886772       2.853580
                                                         9.275933       1.577736
                                                         3.820341       0.253831

     RI Auxiliary Basis Set             RI_aug-SZV-MOLOPT-ae_N_RI_108_s_p_d_f_g_

       Number of orbital shell sets:                                          26
       Number of orbital shells:                                              26
       Number of primitive Cartesian functions:                               26
       Number of Cartesian basis functions:                                  141
       Number of spherical basis functions:                                  108
       Norm type:                                                              2

       Normalised Cartesian orbitals:

                        Set   Shell   Orbital            Exponent    Coefficient

                          1       1   14dx2              0.306613       0.207943
                          1       1   14dxy              0.306613       0.360167
                          1       1   14dxz              0.306613       0.360167
                          1       1   14dy2              0.306613       0.207943
                          1       1   14dyz              0.306613       0.360167
                          1       1   14dz2              0.306613       0.207943

                          2       1    1s                0.344489       0.320473

                          3       1    8px               0.347988       0.380975
                          3       1    8py               0.347988       0.380975
                          3       1    8pz               0.347988       0.380975

                          4       1   20fx3              0.454212       0.249336
                          4       1   20fx2y             0.454212       0.557533
                          4       1   20fx2z             0.454212       0.557533
                          4       1   20fxy2             0.454212       0.557533
                          4       1   20fxyz             0.454212       0.965675
                          4       1   20fxz2             0.454212       0.557533
                          4       1   20fy3              0.454212       0.249336
                          4       1   20fy2z             0.454212       0.557533
                          4       1   20fyz2             0.454212       0.557533
                          4       1   20fz3              0.454212       0.249336

                          5       1   15dx2              0.712723       0.909957
                          5       1   15dxy              0.712723       1.576091
                          5       1   15dxz              0.712723       1.576091
                          5       1   15dy2              0.712723       0.909957
                          5       1   15dyz              0.712723       1.576091
                          5       1   15dz2              0.712723       0.909957

                          6       1   25gx4              0.825424       0.656594
                          6       1   25gx3y             0.825424       1.737185
                          6       1   25gx3z             0.825424       1.737185
                          6       1   25gx2y2            0.825424       2.242696
                          6       1   25gx2yz            0.825424       3.884463
                          6       1   25gx2z2            0.825424       2.242696
                          6       1   25gxy3             0.825424       1.737185
                          6       1   25gxy2z            0.825424       3.884463
                          6       1   25gxyz2            0.825424       3.884463
                          6       1   25gxz3             0.825424       1.737185
                          6       1   25gy4              0.825424       0.656594
                          6       1   25gy3z             0.825424       1.737185
                          6       1   25gy2z2            0.825424       2.242696
                          6       1   25gyz3             0.825424       1.737185
                          6       1   25gz4              0.825424       0.656594

                          7       1    2s                0.909156       0.663573

                          8       1    9px               1.235620       1.856932
                          8       1    9py               1.235620       1.856932
                          8       1    9pz               1.235620       1.856932

                          9       1   21fx3              1.369813       2.988427
                          9       1   21fx2y             1.369813       6.682325
                          9       1   21fx2z             1.369813       6.682325
                          9       1   21fxy2             1.369813       6.682325
                          9       1   21fxyz             1.369813      11.574126
                          9       1   21fxz2             1.369813       6.682325
                          9       1   21fy3              1.369813       2.988427
                          9       1   21fy2z             1.369813       6.682325
                          9       1   21fyz2             1.369813       6.682325
                          9       1   21fz3              1.369813       2.988427

                         10       1   16dx2              1.682193       4.089708
                         10       1   16dxy              1.682193       7.083581
                         10       1   16dxz              1.682193       7.083581
                         10       1   16dy2              1.682193       4.089708
                         10       1   16dyz              1.682193       7.083581
                         10       1   16dz2              1.682193       4.089708

                         11       1   22fx3              2.922147      16.435541
                         11       1   22fx2y             2.922147      36.750987
                         11       1   22fx2z             2.922147      36.750987
                         11       1   22fxy2             2.922147      36.750987
                         11       1   22fxyz             2.922147      63.654576
                         11       1   22fxz2             2.922147      36.750987
                         11       1   22fy3              2.922147      16.435541
                         11       1   22fy2z             2.922147      36.750987
                         11       1   22fyz2             2.922147      36.750987
                         11       1   22fz3              2.922147      16.435541

                         12       1    3s                3.109771       1.669000

                         13       1   10px               3.642025       7.171645
                         13       1   10py               3.642025       7.171645
                         13       1   10pz               3.642025       7.171645

                         14       1   17dx2              3.962369      18.315995
                         14       1   17dxy              3.962369      31.724235
                         14       1   17dxz              3.962369      31.724235
                         14       1   17dy2              3.962369      18.315995
                         14       1   17dyz              3.962369      31.724235
                         14       1   17dz2              3.962369      18.315995

                         15       1   23fx3              6.445669      97.455743
                         15       1   23fx2y             6.445669     217.917667
                         15       1   23fx2z             6.445669     217.917667
                         15       1   23fxy2             6.445669     217.917667
                         15       1   23fxyz             6.445669     377.444471
                         15       1   23fxz2             6.445669     217.917667
                         15       1   23fy3              6.445669      97.455743
                         15       1   23fy2z             6.445669     217.917667
                         15       1   23fyz2             6.445669     217.917667
                         15       1   23fz3              6.445669      97.455743

                         16       1   26gx4              7.012613     235.833288
                         16       1   26gx3y             7.012613     623.956231
                         16       1   26gx3z             7.012613     623.956231
                         16       1   26gx2y2            7.012613     805.524031
                         16       1   26gx2yz            7.012613    1395.208548
                         16       1   26gx2z2            7.012613     805.524031
                         16       1   26gxy3             7.012613     623.956231
                         16       1   26gxy2z            7.012613    1395.208548
                         16       1   26gxyz2            7.012613    1395.208548
                         16       1   26gxz3             7.012613     623.956231
                         16       1   26gy4              7.012613     235.833288
                         16       1   26gy3z             7.012613     623.956231
                         16       1   26gy2z2            7.012613     805.524031
                         16       1   26gyz3             7.012613     623.956231
                         16       1   26gz4              7.012613     235.833288

                         17       1   18dx2              9.333359      82.030607
                         17       1   18dxy              9.333359     142.081180
                         17       1   18dxz              9.333359     142.081180
                         17       1   18dy2              9.333359      82.030607
                         17       1   18dyz              9.333359     142.081180
                         17       1   18dz2              9.333359      82.030607

                         18       1   11px              10.769589      27.809233
                         18       1   11py              10.769589      27.809233
                         18       1   11pz              10.769589      27.809233

                         19       1    4s               11.034999       4.315085

                         20       1   24fx3             14.084207     565.721044
                         20       1   24fx2y            14.084207    1264.990710
                         20       1   24fx2z            14.084207    1264.990710
                         20       1   24fxy2            14.084207    1264.990710
                         20       1   24fxyz            14.084207    2191.028181
                         20       1   24fxz2            14.084207    1264.990710
                         20       1   24fy3             14.084207     565.721044
                         20       1   24fy2z            14.084207    1264.990710
                         20       1   24fyz2            14.084207    1264.990710
                         20       1   24fz3             14.084207     565.721044

                         21       1   19dx2             21.988080     367.482999
                         21       1   19dxy             21.988080     636.499225
                         21       1   19dxz             21.988080     636.499225
                         21       1   19dy2             21.988080     367.482999
                         21       1   19dyz             21.988080     636.499225
                         21       1   19dz2             21.988080     367.482999

                         22       1   12px              31.865013     107.915221
                         22       1   12py              31.865013     107.915221
                         22       1   12pz              31.865013     107.915221

                         23       1    5s               39.101020      11.144258

                         24       1   13px              94.252624     418.607400
                         24       1   13py              94.252624     418.607400
                         24       1   13pz              94.252624     418.607400

                         25       1    6s              138.234610      28.732452

                         26       1    7s              488.527053      74.058780

       Atomic covalent radius [Angstrom]:                                  0.730

       Atomic van der Waals radius [Angstrom]:                             1.520

     The atoms of this atomic kind are PAW atoms (GAPW):
       Hard Gaussian function radius:                                      1.512
       Rho0 radius:                                                        1.512
       Maximum GTO radius used for PAW projector construction:            24.566

     GAPW Soft Basis Set                                  aug-SZV-MOLOPT-ae_soft

       Number of orbital shell sets:                                           2
       Number of orbital shells:                                               6
       Number of primitive Cartesian functions:                                6
       Number of Cartesian basis functions:                                   15
       Number of spherical basis functions:                                   14
       Norm type:                                                              2

       Normalised Cartesian orbitals:

                        Set   Shell   Orbital            Exponent    Coefficient

                          1       1    1s                0.123000       0.000000
                                                         0.245881       0.059902
                                                         0.536420       0.265853
                                                         1.235135       0.208956
                                                         3.210345      -0.057750

                          1       2    2s                0.123000      -0.253465
                                                         0.245881       0.187097
                                                         0.536420       0.063592
                                                         1.235135       0.074938
                                                         3.210345       0.000000

                          1       3    2px               0.123000       0.000000
                                                         0.245881       0.025102
                                                         0.536420       0.278668
                                                         1.235135       0.775885
                                                         3.210345       1.065175
                          1       3    2py               0.123000       0.000000
                                                         0.245881       0.025102
                                                         0.536420       0.278668
                                                         1.235135       0.775885
                                                         3.210345       1.065175
                          1       3    2pz               0.123000       0.000000
                                                         0.245881       0.025102
                                                         0.536420       0.278668
                                                         1.235135       0.775885
                                                         3.210345       1.065175

                          1       4    3px               0.123000       0.048536
                                                         0.245881       0.257066
                                                         0.536420      -0.539300
                                                         1.235135      -0.153605
                                                         3.210345       0.000000
                          1       4    3py               0.123000       0.048536
                                                         0.245881       0.257066
                                                         0.536420      -0.539300
                                                         1.235135      -0.153605
                                                         3.210345       0.000000
                          1       4    3pz               0.123000       0.048536
                                                         0.245881       0.257066
                                                         0.536420      -0.539300
                                                         1.235135      -0.153605
                                                         3.210345       0.000000

                          1       5    3dx2              0.123000       0.022065
                                                         0.245881       0.038414
                                                         0.536420       0.100211
                                                         1.235135       0.626583
                                                         3.210345       0.000000
                          1       5    3dxy              0.123000       0.038217
                                                         0.245881       0.066534
                                                         0.536420       0.173571
                                                         1.235135       1.085274
                                                         3.210345       0.000000
                          1       5    3dxz              0.123000       0.038217
                                                         0.245881       0.066534
                                                         0.536420       0.173571
                                                         1.235135       1.085274
                                                         3.210345       0.000000
                          1       5    3dy2              0.123000       0.022065
                                                         0.245881       0.038414
                                                         0.536420       0.100211
                                                         1.235135       0.626583
                                                         3.210345       0.000000
                          1       5    3dyz              0.123000       0.038217
                                                         0.245881       0.066534
                                                         0.536420       0.173571
                                                         1.235135       1.085274
                                                         3.210345       0.000000
                          1       5    3dz2              0.123000       0.022065
                                                         0.245881       0.038414
                                                         0.536420       0.100211
                                                         1.235135       0.626583
                                                         3.210345       0.000000

                          2       1    1s                3.820341       0.253831

     AE Potential information for                                            ALL

       Description:                                       All-electron potential
                                          Krack, Parrinello, PCCP 2, 2105 (2000)

       Gaussian exponent of the core charge distribution:               8.154466
       Electronic configuration (s p d ...):                           4   4   0

  3. Atomic kind: C                                     Number of atoms:       6

     Orbital Basis Set                                         aug-SZV-MOLOPT-ae

       Number of orbital shell sets:                                           2
       Number of orbital shells:                                               6
       Number of primitive Cartesian functions:                               13
       Number of Cartesian basis functions:                                   15
       Number of spherical basis functions:                                   14
       Norm type:                                                              2

       Normalised Cartesian orbitals:

                        Set   Shell   Orbital            Exponent    Coefficient

                          1       1    2s                0.070000       0.000000
                                                         0.143687       0.040037
                                                         0.313471       0.177689
                                                         0.721783       0.139661
[...]
 compute_GW_self_energy_deep        100  8.0    0.935    0.956    3.192    3.219
 mp_sync                            857  9.5    1.716    3.190    1.716    3.190
 put_rho0_on_grid                    82  9.0    0.264    0.323    3.075    3.082
 transfer_rs2pw_250                 165 10.0    0.918    0.990    2.482    2.873
 mp_sum_d                          4781  6.7    2.555    2.785    2.555    2.785
 mp_alltoall_d11v                  1720  9.6    1.675    2.461    1.675    2.461
 integrate_vhg0_rspace               82  8.0    0.083    0.103    2.435    2.442
 powell_optimize                1529536 11.0    2.203    2.256    2.203    2.256
 create_hermitian_form_of_ABBA        1  8.0    0.000    0.000    2.047    2.050
 calc_screening_functions             1 10.0    0.780    0.822    1.995    2.032
 mp_waitall_1                     40390 12.0    1.550    1.982    1.550    1.982
 mp2_ri_gpw_compute_in                1  5.0    0.001    0.002    1.976    1.976
 mp2_ri_gpw_compute_in_loop           1  6.0    0.000    0.000    1.912    1.912
 calculate_vxc_atom                  82  8.0    0.052    0.168    1.882    1.883
 xc_functional_eval                 567 10.7    0.001    0.001    1.225    1.828
 pbe_lda_eval                       567 11.7    1.224    1.826    1.224    1.826
 diagonalize_C                        1  8.0    0.000    0.000    1.707    1.707
 contract_B_L                         4  7.0    0.002    0.002    1.445    1.693
 mp2_eri_3c_integrate                 1  7.0    0.002    0.004    0.406    1.682
 gaVxcgb_GC                         243  9.0    0.115    1.680    0.115    1.680
 integrate_set_3c                  3504  8.0    0.371    1.593    0.404    1.679
 cp_fm_power                          2  7.5    0.044    0.045    1.645    1.654
 mp_cart_create                     703  9.8    1.323    1.570    1.324    1.571
 dbt_pgrid_create_expert             84 10.8    0.000    0.000    1.300    1.548
 calc_pair_dist_radii                 1 10.0    0.506    0.552    1.494    1.537
 transfer_pw2rs_30                   82 12.0    0.743    0.755    1.303    1.387
 qs_scf_new_mos                      81  5.0    0.001    0.001    1.289    1.330
 calculate_rho_atom                 410  9.0    0.591    1.276    0.591    1.276
 pw_scatter_p                       896 12.1    1.124    1.173    1.124    1.173
 transfer_pw2rs_90                   82 12.0    0.158    0.188    0.916    1.172
 transfer_rs2pw_30                   82  9.0    0.325    0.344    0.994    1.055
 mp_sum_dm                         3776  7.6    0.949    1.040    0.949    1.040
 rpa_num_int_RPA_matrix_operati     100  7.0    0.001    0.003    1.026    1.027
 transfer_rs2pw_90                   82  9.0    0.180    0.206    0.897    1.011
 pw_derive                          732 11.3    0.936    0.950    0.936    0.950
 mp_sendrecv_dv                   12956 10.0    0.846    0.918    0.846    0.918
 eigensolver_symm                    82  6.0    0.005    0.006    0.911    0.914
 mp_sum_dv                        10796 10.3    0.786    0.854    0.786    0.854
 pw_copy                           1225 10.6    0.820    0.850    0.820    0.850
 pw_gather_p                        817 11.8    0.821    0.846    0.821    0.846
 cp2k_distribution_to_z_slices       82  9.0    0.299    0.340    0.776    0.804
 mp_isend_dv                      14143 11.8    0.255    0.669    0.255    0.669
 calc_mat_Q                         100  8.0    0.000    0.000    0.657    0.668
 contract_S_to_Q                    100  9.0    0.000    0.000    0.653    0.663
 transfer_pw2rs_10                   82 12.0    0.130    0.136    0.613    0.633
 rs_grid_zero                       412 11.2    0.585    0.599    0.585    0.599
 pw_copy_to_array                   817 11.8    0.466    0.580    0.466    0.580
 fft_wrap_pw1pw2_90                 164 10.5    0.025    0.026    0.539    0.553
 rs_gather_matrices                  82 10.0    0.002    0.003    0.471    0.553
 compute_vec_Sigma_x_minus_vxc_       1  4.0    0.000    0.000    0.550    0.550
 pw_poisson_set                      83  8.9    0.001    0.001    0.538    0.545
 cp_fm_cholesky_invert              101  8.0    0.529    0.544    0.529    0.544
 grid_integrate_task_list            82 10.0    0.079    0.519    0.079    0.519
 pw_copy_from_array                 896 12.1    0.405    0.503    0.405    0.503
 pw_integral_ab_c1d_c1d_gs           82  9.0    0.356    0.358    0.447    0.455
 mp_isend_dm3                      2964 11.5    0.104    0.415    0.104    0.415
 cp_fm_cholesky_decompose           102  9.0    0.370    0.384    0.370    0.384
 pw_axpy                            815  9.3    0.348    0.365    0.348    0.365
 calculate_rho_atom_coeff            82  6.0    0.040    0.053    0.356    0.357
 compute_Erpa_by_freq_int           100  8.0    0.001    0.002    0.350    0.351
 qs_energies_init_hamiltonians        1  3.0    0.000    0.000    0.343    0.343
 build_core_hamiltonian_matrix        1  4.0    0.000    0.000    0.340    0.340
 overlap_condnum                      1  5.0    0.000    0.000    0.338    0.339
 pw_poisson_rebuild                  82  9.0    0.000    0.000    0.320    0.335
 ps_wavelet_create                    1 10.0    0.000    0.000    0.320    0.335
 RS_z_slice_distribution              1 11.0    0.252    0.277    0.320    0.335
 arnoldi_conjugate_gradient           5  6.0    0.007    0.009    0.316    0.316
 create_qs_kind_set                   1  2.0    0.000    0.000    0.296    0.297
 read_qs_kind                         5  3.0    0.074    0.204    0.296    0.297
 transfer_rs2pw_10                   82  9.0    0.081    0.084    0.258    0.278
 calculate_dm_sparse                 81  6.0    0.000    0.000    0.237    0.267
 cp_dbcsr_plus_fm_fm_t               81  7.0    0.001    0.001    0.236    0.266
 mp2_main_alloc_hfx                   1  4.0    0.116    0.233    0.116    0.233
 parser_read_line                 32774  4.0    0.005    0.005    0.222    0.225
 dbcsr_multiply_generic             198  8.0    0.005    0.006    0.192    0.223
 pw_zero                            488 10.3    0.210    0.222    0.210    0.222
 mp_sum_i                            19  9.5    0.118    0.222    0.118    0.222
 restraint_control                    1  2.0    0.000    0.000    0.117    0.222
 init_scf_run                         1  3.0    0.000    0.000    0.222    0.222
 parser_read_line_low                49  5.0    0.002    0.051    0.217    0.220
 broadcast_input_information         49  6.0    0.008    0.008    0.215    0.218
 scf_env_initial_rho_setup            1  4.0    0.000    0.000    0.211    0.211
 write_mo_set_to_restart             81  5.0    0.003    0.170    0.166    0.205
 copy_dbcsr_to_fm                   148  6.9    0.002    0.002    0.183    0.202
 mp_bcast_i_src                     196  7.0    0.185    0.196    0.185    0.196
 update_ks_atom                      82  8.0    0.031    0.053    0.173    0.194
 dbcsr_sym_matrix_vector_mult      2115  7.0    0.015    0.016    0.181    0.192
 dbcsr_complete_redistribute        314  8.5    0.012    0.014    0.187    0.190
 qs_init_subsys                       1  2.0    0.002    0.002    0.189    0.190
 Vh_1c_gg_integrals                  82  8.0    0.017    0.156    0.180    0.189
 integrate_four_center_load          82 10.0    0.000    0.000    0.100    0.185
 hfx_load_balance                     1 11.0    0.000    0.000    0.099    0.185
 qs_env_setup                         1  3.0    0.000    0.000    0.184    0.185
 qs_env_rebuild_pw_env                2  3.5    0.000    0.000    0.183    0.184
 pw_env_rebuild                       1  5.0    0.000    0.000    0.183    0.184
 mp_sum_l                          1230  6.8    0.094    0.175    0.094    0.175
 mp_isendrecv_dv                  25912 12.0    0.040    0.172    0.040    0.172
 write_mo_set_low                     5  6.0    0.000    0.000    0.163    0.165
 cp_fm_write_unformatted              5  7.0    0.163    0.165    0.163    0.165
 pw_grid_setup                        4  6.0    0.000    0.000    0.155    0.156
 pw_grid_setup_internal               4  7.0    0.002    0.003    0.155    0.156
 cp_fm_syrk                           3  7.0    0.147    0.152    0.147    0.152
 hfx_load_balance_range               1 12.0    0.000    0.000    0.064    0.149
 fm_general_add_bse                   5 10.2    0.000    0.000    0.145    0.147
 mp_bcast_dm                       2460  9.0    0.142    0.147    0.142    0.147
 calculate_rho0_atom                410  9.0    0.144    0.146    0.144    0.146
 fft_wrap_pw1pw2_30                 164 10.5    0.005    0.005    0.143    0.146
 create_A                             1  8.0    0.001    0.002    0.142    0.144
 dbt_total                            8  8.0    0.000    0.000    0.137    0.137
 create_B                             1  8.0    0.000    0.000    0.129    0.133
 cp_fm_to_fm_submat_general         112 10.1    0.109    0.128    0.109    0.128
 dbt_contract                         4  9.0    0.000    0.000    0.122    0.124
 multiply_cannon                    198  9.0    0.009    0.009    0.092    0.122
 mp_max_i                           638  3.0    0.096    0.114    0.096    0.114
 mp_bcast_b_src                     169  7.5    0.093    0.112    0.093    0.112
 pw_grid_sort                         4  8.0    0.080    0.081    0.108    0.110
 dbcsr_add_d                       3239  7.0    0.001    0.002    0.019    0.109
 dbcsr_desymmetrize_deep            150  7.8    0.003    0.004    0.090    0.108
 dbcsr_add_anytype                 3239  8.0    0.002    0.012    0.017    0.107
 cp_fm_uplo_to_full                 191  8.4    0.076    0.106    0.076    0.106
 copy_fm_to_dbcsr                   166  8.1    0.000    0.000    0.100    0.104
 multiply_cannon_loop               198 10.0    0.006    0.006    0.073    0.102
 abc_contract                      3504  9.0    0.033    0.091    0.033    0.091
 external_control                    82  5.0    0.001    0.087    0.090    0.090
 dbt_tas_multiply                     8 11.5    0.000    0.000    0.086    0.086
 dbt_tas_total                        8 12.5    0.001    0.006    0.085    0.085
 postprocess_bse                      1  9.0    0.000    0.000    0.081    0.082
 mp_alltoall_i11v                  1092  9.4    0.075    0.075    0.075    0.075
 scale_and_distribute               164 10.0    0.063    0.075    0.063    0.075
 dbcsr_finalize                    5390 10.7    0.006    0.020    0.029    0.074
 make_m2s                           396  9.0    0.003    0.003    0.071    0.073
 fft_wrap_pw1pw2_10                 164 10.5    0.001    0.001    0.070    0.073
 dbcsr_col_vec_to_rep_row          2115  8.0    0.007    0.008    0.062    0.072
 scf_post_calculation_gpw             1  3.0    0.000    0.000    0.071    0.071
 create_integ_mat                     4  6.0    0.001    0.001    0.070    0.071
 write_available_results              1  4.0    0.000    0.000    0.071    0.071
 write_mo_free_results                1  5.0    0.004    0.005    0.070    0.071
 multiply_cannon_metrocomm3        1832 11.1    0.002    0.003    0.033    0.070
 mp_alltoall_i22                    464  9.3    0.050    0.070    0.050    0.070
 array2fm                             4  7.0    0.000    0.000    0.065    0.069
 pw_scale                           325  9.5    0.043    0.069    0.043    0.069
 self_consistency_check              81  5.0    0.000    0.000    0.035    0.066
 cp_sm_mix                           81  6.0    0.000    0.000    0.034    0.066
 mp_max_d                            83  6.9    0.034    0.066    0.034    0.066
 vxc_of_r_new                       486  9.0    0.001    0.010    0.004    0.063
 get_2c_integrals                     1  6.0    0.000    0.000    0.061    0.063
 dbcsr_rep_row_to_rep_col_vec      2115  8.0    0.006    0.006    0.041    0.062
 mp_rank_compare                   1713 12.9    0.049    0.052    0.049    0.052
 mp_bcast_dv                       2115  9.0    0.041    0.051    0.041    0.051
 cp_fm_symm                          82  7.0    0.046    0.050    0.046    0.050
 fm_general_add_bse_1_setup           5 11.2    0.046    0.049    0.046    0.049
 dbt_tas_dbm                          8 13.5    0.000    0.000    0.049    0.049
 multiply_cannon_metrocomm1        1832 11.1    0.001    0.001    0.009    0.047
 dbt_tas_mm_1N                        8 14.5    0.000    0.000    0.040    0.045
 dbm_multiply                         8 15.5    0.040    0.045    0.040    0.045
 integrate_four_center_dist_KS       82 10.0    0.006    0.007    0.043    0.044
 compute_2c_integrals                 1  7.0    0.000    0.000    0.029    0.042
 make_images                        396 10.0    0.008    0.008    0.039    0.041
 dbcsr_iterator_start             28423  8.9    0.022    0.032    0.026    0.040
 dbt_copy                            12 10.0    0.000    0.000    0.034    0.039
 rs_scatter_matrices                 82  7.0    0.001    0.001    0.038    0.039
 integrate_four_center_getP          82 10.0    0.007    0.008    0.036    0.038
 hybrid_alltoall_any                546 11.2    0.006    0.008    0.034    0.038
 mp_irecv_dm3                      2964 11.5    0.011    0.038    0.011    0.038
 get_multipoles_mo                    1 10.0    0.000    0.000    0.037    0.037
 get_oscillator_strengths             1 10.0    0.000    0.000    0.037    0.037
 mp_comm_split_direct                48 14.5    0.022    0.035    0.022    0.035
 mp_irecv_dv                      14085 11.8    0.009    0.035    0.009    0.035
 array2fm_info                        4  8.0    0.030    0.034    0.031    0.034
 dbcsr_merge_all                   4238 11.4    0.010    0.025    0.015    0.034
 mult_B_with_W                        1  8.0    0.000    0.000    0.033    0.033
 multiply_cannon_metrocomm4        1634 11.1    0.003    0.003    0.006    0.032
 hfx_load_balance_redist              1 12.0    0.003    0.003    0.031    0.032
 fm_general_add_bse_5_comm_buff       5 11.2    0.000    0.000    0.023    0.032
 communicate_buffer                   5 12.2    0.000    0.000    0.023    0.032
 cholesky_decomp                      1  7.0    0.000    0.000    0.018    0.031
 fm_general_add_bse_4_buf_from_       1 10.0    0.028    0.031    0.028    0.031
 sort_shells                          4  9.0    0.028    0.030    0.028    0.030
 fm_general_add_bse_4_buf_from_       1 10.0    0.027    0.030    0.027    0.030
 dbt_reshape                          8 11.5    0.004    0.007    0.024    0.029
 dbcsr_copy                        9465  7.7    0.016    0.018    0.027    0.028
 Q_trace_and_add_unit_matrix        100  8.0    0.000    0.001    0.018    0.028
 mp_isendrecv_lv                    158 13.0    0.001    0.028    0.001    0.028
 mixing_init                          1  5.0    0.026    0.027    0.027    0.027
 dbcsr_work_create                 5128 10.6    0.006    0.018    0.008    0.027
 mp2_main_free_hfx                    1  4.0    0.014    0.027    0.014    0.027
 cp_dbcsr_sm_fm_multiply              3 11.0    0.000    0.000    0.024    0.026
 compute_max_radius                   1  6.0    0.025    0.026    0.025    0.026
 dbt_remap                            8 10.0    0.001    0.001    0.025    0.025
 xc_pw_smooth                        81 10.0    0.000    0.000    0.024    0.025
 mp_maxloc_dv                      1511  1.0    0.019    0.025    0.019    0.025
 hirshfeld_integration                1  6.0    0.001    0.009    0.024    0.024
 mp_bcast_am_src                     49  7.0    0.020    0.023    0.021    0.024
 array2fm_buffer_send                 4  8.0    0.021    0.023    0.021    0.023
 mulliken_population_analysis         1  6.0    0.000    0.000    0.022    0.022
 offload_free_buffer                 90  8.5    0.016    0.022    0.016    0.022
 dbt_distribution_new_expert         76 10.1    0.001    0.001    0.021    0.022
 dbcsr_create_new                 13053  9.2    0.015    0.016    0.020    0.021
 dbcsr_crop_matrix                  486 10.0    0.002    0.002    0.020    0.021
 dbcsr_iterator_stop              28423  8.9    0.013    0.017    0.016    0.020
 calculate_hirshfeld_normalizat       1  6.0    0.001    0.009    0.019    0.020
 mp_cart_sub                        300  8.9    0.019    0.019    0.019    0.019
 multiply_cannon_multrec           1832 11.1    0.014    0.019    0.014    0.019
 dbt_tas_distribution_new            92 11.7    0.010    0.010    0.018    0.019
 dbcsr_work_destroy_all            5128 11.5    0.005    0.014    0.006    0.019
 dbt_communicate_buffer               8 12.5    0.000    0.000    0.015    0.018
 mp_waitall_2                        48 15.8    0.013    0.018    0.013    0.018
 pw_grid_assign                       4  8.0    0.012    0.016    0.017    0.017
 cp_dbcsr_sm_fm_multiply_core         3 12.0    0.000    0.000    0.008    0.017
 dbt_tas_estimate_result_nze          4 12.0    0.001    0.001    0.017    0.017
 ao_to_mo_and_store_B_mult_gw_1      14  7.0    0.000    0.000    0.013    0.016
 dbcsr_copy_submatrix               486 11.0    0.002    0.002    0.015    0.016
 mp_sum_iv                          235  9.9    0.010    0.015    0.010    0.015
 array2fm_fill                        4  8.0    0.004    0.005    0.010    0.015
 dbt_split_blocks_generic            20  8.8    0.003    0.004    0.014    0.014
 dbt_create_new                      40  9.5    0.000    0.000    0.011    0.014
 cp_fm_redistribute_start            87  8.0    0.000    0.000    0.007    0.014
 mp_alltoall_i                       37 14.0    0.010    0.014    0.010    0.014
 make_images_sizes                  396 11.0    0.000    0.000    0.011    0.014
 ao_to_mo_and_store_B_mult_1         14  7.0    0.000    0.000    0.011    0.014
 dbcsr_data_new                   50234 11.0    0.007    0.013    0.007    0.013
 mp_alltoall_i44                    396 12.0    0.011    0.013    0.011    0.013
 create_fast_col_vec_access        4230  8.0    0.008    0.009    0.012    0.013
 cp_fm_create                       235  7.4    0.011    0.013    0.011    0.013
 pw_grid_remap                        4  8.0    0.003    0.003    0.011    0.013
 mp_bcast_av                        756  1.0    0.004    0.006    0.011    0.013
 ao_to_mo_and_store_B_mult_bse_      14  7.0    0.000    0.000    0.012    0.013
 make_images_data                   396 11.0    0.002    0.003    0.010    0.013
 create_fast_row_vec_access        4230  8.0    0.007    0.008    0.012    0.013
 dbt_tas_replicate                    8 13.5    0.004    0.004    0.011    0.012
 dbcsr_data_release               83422 10.6    0.008    0.012    0.008    0.012
 dbt_tas_create_split                44 13.2    0.000    0.000    0.011    0.012
 dbt_tas_create_split_rows_or_c      44 14.2    0.000    0.000    0.011    0.012
 mp_wait                            103  9.0    0.006    0.011    0.006    0.011
 calc_fm_mat_S_rpa                  100  9.0    0.004    0.010    0.004    0.010
 mp_sum_im3                           4  9.0    0.008    0.010    0.008    0.010
 -------------------------------------------------------------------------------

 The number of warnings for this run is : 1
 
 -------------------------------------------------------------------------------
  **** **** ******  **  PROGRAM ENDED AT                 2025-05-05 02:49:59.484
 ***** ** ***  *** **   PROGRAM RAN ON                     n2cn0190.ab2021.local
 **    ****   ******    PROGRAM RAN BY                                  metdyn02
 ***** **    ** ** **   PROGRAM PROCESS ID                               3595305
  **** **  *******  **  PROGRAM STOPPED IN /scratch/hpc-prf-metdyn/metdyn02_Remi
                                           /10_MOL/05_MOL/aUKBqsEOTmq69kFe5R_nOg
                                           /5k_set_final_qzvp/LUHLOP/SZV/GW+BSE/
                                           RILIM
