 DBCSR| CPU Multiplication driver                                           XSMM (U)
 DBCSR| Multrec recursion limit                                              512 (U)
 DBCSR| Multiplication stack size                                           1000 (D)
 DBCSR| Maximum elements for images                                    UNLIMITED (U)
 DBCSR| Multiplicative factor virtual images                                   1 (U)
 DBCSR| Use multiplication densification                                       T (D)
 DBCSR| Multiplication size stacks                                             3 (U)
 DBCSR| Use memory pool for CPU allocation                                     F (U)
 DBCSR| Number of 3D layers                                               SINGLE (U)
 DBCSR| Use MPI memory allocation                                              F (U)
 DBCSR| Use RMA algorithm                                                      F (U)
 DBCSR| Use Communication thread                                               T (U)
 DBCSR| Communication thread load                                             60 (D)
 DBCSR| MPI: My process id                                                     0
 DBCSR| MPI: Number of processes                                              80
 DBCSR| OMP: Current number of threads                                         8
 DBCSR| OMP: Max number of threads                                             8
 DBCSR| Split modifier for TAS multiplication algorithm                  1.0E+00 (U)


  **** **** ******  **  PROGRAM STARTED AT               2025-05-30 10:54:44.788
 ***** ** ***  *** **   PROGRAM STARTED ON                              n2cn0225
 **    ****   ******    PROGRAM STARTED BY                              metdyn02
 ***** **    ** ** **   PROGRAM PROCESS ID                               1398401
  **** **  *******  **  PROGRAM STARTED IN /scratch/hpc-prf-metdyn/metdyn02_Remi
                                           /10_MOL/05_MOL_low_scal/05_MOL/aUKBqs
                                           EOTmq69kFe5R_nOg/5k_set_final_qzvp/WA
                                           DQOJ/SZV/1e-5/5.0

 CP2K| version string:                 CP2K version 2025.1 (Development Version)
 CP2K| source code revision number:                                  git:32ddf85
 CP2K| cp2kflags: omp libint fftw3 libxc libgrpp elpa parallel scalapack mpi_f08
 CP2K|             cosma xsmm plumed2 spglib libvori libbqb libvdwxc hdf5
 CP2K| is freely available from                            https://www.cp2k.org/
 CP2K| Program compiled at                         Mon May 19 11:32:37 CEST 2025
 CP2K| Program compiled on                                              n2login1
 CP2K| Program compiled for                                                local
 CP2K| Data directory path    /opt/software/pc2/EB-SW/software/CP2K/2024.1-foss-
 CP2K| Input file name                                                    GW.inp

 GLOBAL| Force Environment number                                              1
 GLOBAL| Basis set file name            /scratch/hpc-prf-metdyn/metdyn02_Remi/BA
 GLOBAL| Potential file name            /pc2/groups/hpc-prf-metdyn/metdyn02_Remi
 GLOBAL| MM Potential file name                                     MM_POTENTIAL
 GLOBAL| Coordinate file name                                      __STD_INPUT__
 GLOBAL| Method name                                                        CP2K
 GLOBAL| Project name                                                       MoS2
 GLOBAL| Run type                                                         ENERGY
 GLOBAL| FFT library                                                       FFTW3
 GLOBAL| Diagonalization library                                            ELPA
 GLOBAL| Cholesky decomposition library                                ScaLAPACK
 GLOBAL| DGEMM library                                                      BLAS
 GLOBAL| Minimum number of eigenvectors for ELPA usage                        16
 GLOBAL| Orthonormality check for eigenvectors                          DISABLED
 GLOBAL| Matrix multiplication library                                     COSMA
 GLOBAL| All-to-all communication in single precision                          F
 GLOBAL| FFTs using library dependent lengths                                  F
 GLOBAL| Grid backend                                                       AUTO
 GLOBAL| Global print level                                               MEDIUM
 GLOBAL| MPI I/O enabled                                                       T
 GLOBAL| Total number of message passing processes                            80
 GLOBAL| Number of threads for this process                                    8
 GLOBAL| This output is from process                                           0
 GLOBAL| OpenMP stack size per thread (OMP_STACKSIZE)                    default
 GLOBAL| CPU model name                          AMD EPYC 7763 64-Core Processor
 GLOBAL| CPUID                                                              1002

 MEMORY| system memory details [Kb]
 MEMORY|                        rank 0           min           max       average
 MEMORY| MemTotal            263897572     263897548     263897636     263897589
 MEMORY| MemFree             250368520     244221740     252636092     247981834
 MEMORY| Buffers                 52428         29824        142840         71698
 MEMORY| Cached                8297164       6825560      14245556      10825919
 MEMORY| Slab                  1914552       1334944       2078396       1822515
 MEMORY| SReclaimable           535760        272464        686596        464085
 MEMORY| MemLikelyFree       259253872     259101404     259868976     259343538


 *** Fundamental physical constants (SI units) ***

 *** Literature: B. J. Mohr and B. N. Taylor,
 ***             CODATA recommended values of the fundamental physical
 ***             constants: 2006, Web Version 5.1
 ***             http://physics.nist.gov/constants

 Speed of light in vacuum [m/s]                             2.99792458000000E+08
 Magnetic constant or permeability of vacuum [N/A**2]       1.25663706143592E-06
 Electric constant or permittivity of vacuum [F/m]          8.85418781762039E-12
 Planck constant (h) [J*s]                                  6.62606896000000E-34
 Planck constant (h-bar) [J*s]                              1.05457162825177E-34
 Elementary charge [C]                                      1.60217648700000E-19
 Electron mass [kg]                                         9.10938215000000E-31
 Electron g factor [ ]                                     -2.00231930436220E+00
 Proton mass [kg]                                           1.67262163700000E-27
 Fine-structure constant                                    7.29735253760000E-03
 Rydberg constant [1/m]                                     1.09737315685270E+07
 Avogadro constant [1/mol]                                  6.02214179000000E+23
 Boltzmann constant [J/K]                                   1.38065040000000E-23
 Atomic mass unit [kg]                                      1.66053878200000E-27
 Bohr radius [m]                                            5.29177208590000E-11

 *** Conversion factors ***

 [u] -> [a.u.]                                              1.82288848426455E+03
 [Angstrom] -> [Bohr] = [a.u.]                              1.88972613288564E+00
 [a.u.] = [Bohr] -> [Angstrom]                              5.29177208590000E-01
 [a.u.] -> [s]                                              2.41888432650478E-17
 [a.u.] -> [fs]                                             2.41888432650478E-02
 [a.u.] -> [J]                                              4.35974393937059E-18
 [a.u.] -> [N]                                              8.23872205491840E-08
 [a.u.] -> [K]                                              3.15774647902944E+05
 [a.u.] -> [kJ/mol]                                         2.62549961709828E+03
 [a.u.] -> [kcal/mol]                                       6.27509468713739E+02
 [a.u.] -> [Pa]                                             2.94210107994716E+13
 [a.u.] -> [bar]                                            2.94210107994716E+08
 [a.u.] -> [atm]                                            2.90362800883016E+08
 [a.u.] -> [eV]                                             2.72113838565563E+01
 [a.u.] -> [Hz]                                             6.57968392072181E+15
 [a.u.] -> [1/cm] (wave numbers)                            2.19474631370540E+05
 [a.u./Bohr**2] -> [1/cm]                                   5.14048714338585E+03
 

 CELL_TOP| Volume [angstrom^3]:                                     27000.000000
 CELL_TOP| Vector a [angstrom    30.000     0.000     0.000   |a| =    30.000000
 CELL_TOP| Vector b [angstrom     0.000    30.000     0.000   |b| =    30.000000
 CELL_TOP| Vector c [angstrom     0.000     0.000    30.000   |c| =    30.000000
 CELL_TOP| Angle (b,c), alpha [degree]:                                90.000000
 CELL_TOP| Angle (a,c), beta  [degree]:                                90.000000
 CELL_TOP| Angle (a,b), gamma [degree]:                                90.000000
 CELL_TOP| Numerically orthorhombic:                                         YES
 CELL_TOP| Periodicity                                                      NONE

 GENERATE|  Preliminary Number of Bonds generated:                             0
 GENERATE|  Achieved consistency in connectivity generation.

 CELL| Volume [angstrom^3]:                                         27000.000000
 CELL| Vector a [angstrom]:      30.000     0.000     0.000   |a| =    30.000000
 CELL| Vector b [angstrom]:       0.000    30.000     0.000   |b| =    30.000000
 CELL| Vector c [angstrom]:       0.000     0.000    30.000   |c| =    30.000000
 CELL| Angle (b,c), alpha [degree]:                                    90.000000
 CELL| Angle (a,c), beta  [degree]:                                    90.000000
 CELL| Angle (a,b), gamma [degree]:                                    90.000000
 CELL| Numerically orthorhombic:                                             YES
 CELL| Periodicity                                                          NONE

 CELL_REF| Volume [angstrom^3]:                                     27000.000000
 CELL_REF| Vector a [angstrom    30.000     0.000     0.000   |a| =    30.000000
 CELL_REF| Vector b [angstrom     0.000    30.000     0.000   |b| =    30.000000
 CELL_REF| Vector c [angstrom     0.000     0.000    30.000   |c| =    30.000000
 CELL_REF| Angle (b,c), alpha [degree]:                                90.000000
 CELL_REF| Angle (a,c), beta  [degree]:                                90.000000
 CELL_REF| Angle (a,b), gamma [degree]:                                90.000000
 CELL_REF| Numerically orthorhombic:                                         YES
 CELL_REF| Periodicity                                                      NONE

 *******************************************************************************
 *******************************************************************************
 **                                                                           **
 **     #####                         ##              ##                      **
 **    ##   ##            ##          ##              ##                      **
 **   ##     ##                       ##            ######                    **
 **   ##     ##  ##   ##  ##   #####  ##  ##   ####   ##    #####    #####    **
 **   ##     ##  ##   ##  ##  ##      ## ##   ##      ##   ##   ##  ##   ##   **
 **   ##  ## ##  ##   ##  ##  ##      ####     ###    ##   ######   ######    **
 **    ##  ###   ##   ##  ##  ##      ## ##      ##   ##   ##       ##        **
 **     #######   #####   ##   #####  ##  ##  ####    ##    #####   ##        **
 **           ##                                                    ##        **
 **                                                                           **
 **                                                ... make the atoms dance   **
 **                                                                           **
 **            Copyright (C) by CP2K developers group (2000-2025)             **
 **                      J. Chem. Phys. 152, 194103 (2020)                    **
 **                                                                           **
 *******************************************************************************

 DFT| Spin restricted Kohn-Sham (RKS) calculation                            RKS
 DFT| Multiplicity                                                             1
 DFT| Number of spin states                                                    1
 DFT| Charge                                                                   0
 DFT| Self-interaction correction (SIC)                                       NO
 DFT| Cutoffs: density                                              1.000000E-10
 DFT|          gradient                                             1.000000E-10
 DFT|          tau                                                  1.000000E-10
 DFT|          cutoff_smoothing_range                               0.000000E+00
 DFT| XC density smoothing                                                  NONE
 DFT| XC derivatives                                                          PW

 FUNCTIONAL| PBE:
 FUNCTIONAL| J.P.Perdew, K.Burke, M.Ernzerhof, Phys. Rev. Letter, vol. 77, n 18,
 FUNCTIONAL|  pp. 3865-3868, (1996)sx=0.750sc=1.000{spin unpolarized}           


 QS| Method:                                                                GAPW
 QS| Density plane wave grid type                        NON-SPHERICAL FULLSPACE
 QS| Number of grid levels:                                                    4
 QS| Density cutoff [a.u.]:                                                250.0
 QS| Multi grid cutoff [a.u.]: 1) grid level                               250.0
 QS|                           2) grid level                                83.3
 QS|                           3) grid level                                27.8
 QS|                           4) grid level                                 9.3
 QS| Grid level progression factor:                                          3.0
 QS| Relative density cutoff [a.u.]:                                        50.0
 QS| Interaction thresholds: eps_pgf_orb:                                1.0E-12
 QS|                         eps_filter_matrix:                          0.0E+00
 QS|                         eps_core_charge:                            1.0E-14
 QS|                         eps_rho_gspace:                             1.0E-12
 QS|                         eps_rho_rspace:                             1.0E-12
 QS|                         eps_gvg_rspace:                             1.0E-06
 QS|                         eps_ppl:                                    1.0E-02
 QS|                         eps_ppnl:                                   1.0E-08
 QS| GAPW|      One center basis from orbital basis primitives
 QS| GAPW|                   eps_fit:                                    1.0E-04
 QS| GAPW|                   eps_iso:                                    1.0E-12
 QS| GAPW|                   eps_svd:                                    1.0E-08
 QS| GAPW|                   eps_cpc:                                    1.0E-12
 QS| GAPW|   atom-r-grid: quadrature:                                     GC_LOG
 QS| GAPW|      atom-s-grid:  max l :                                          4
 QS| GAPW|      max_l_rho0 :                                                   2


 ATOMIC KIND INFORMATION

  1. Atomic kind: H                                     Number of atoms:       6

     Orbital Basis Set                                         aug-SZV-MOLOPT-ae

       Number of orbital shell sets:                                           1
       Number of orbital shells:                                               4
       Number of primitive Cartesian functions:                                7
       Number of Cartesian basis functions:                                    6
       Number of spherical basis functions:                                    6
       Norm type:                                                              2

       Normalised Cartesian orbitals:

                        Set   Shell   Orbital            Exponent    Coefficient

                          1       1    1s                0.065428       0.000000
                                                         0.100112       0.016532
                                                         0.243077       0.102760
                                                         0.625955       0.185857
                                                         1.822143       0.188385
                                                         6.513144       0.143430
                                                        35.523221       0.095030

                          1       2    2s                0.065428       0.083549
                                                         0.100112       0.009605
                                                         0.243077       0.002524
                                                         0.625955       0.013457
                                                         1.822143       0.000000
                                                         6.513144       0.000000
                                                        35.523221       0.000000

                          1       3    3s                0.065428       0.037407
                                                         0.100112      -0.169070
                                                         0.243077      -0.018899
                                                         0.625955       0.012806
                                                         1.822143       0.000000
                                                         6.513144       0.000000
                                                        35.523221       0.000000

                          1       4    2px               0.065428       0.059908
                                                         0.100112      -0.023770
                                                         0.243077       0.000032
                                                         0.625955       0.017779
                                                         1.822143       0.000000
                                                         6.513144       0.000000
                                                        35.523221       0.000000
                          1       4    2py               0.065428       0.059908
                                                         0.100112      -0.023770
                                                         0.243077       0.000032
                                                         0.625955       0.017779
                                                         1.822143       0.000000
                                                         6.513144       0.000000
                                                        35.523221       0.000000
                          1       4    2pz               0.065428       0.059908
                                                         0.100112      -0.023770
                                                         0.243077       0.000032
                                                         0.625955       0.017779
                                                         1.822143       0.000000
                                                         6.513144       0.000000
                                                        35.523221       0.000000

     RI Auxiliary Basis Set             RI_aug-SZV-MOLOPT-ae_N_RI_010_s_p_d_f_g_

       Number of orbital shell sets:                                           6
       Number of orbital shells:                                               6
       Number of primitive Cartesian functions:                                6
       Number of Cartesian basis functions:                                   10
       Number of spherical basis functions:                                   10
       Norm type:                                                              2

       Normalised Cartesian orbitals:

                        Set   Shell   Orbital            Exponent    Coefficient

                          1       1    1s                0.176483       0.194061

                          2       1    5px               0.271192       0.278957
                          2       1    5py               0.271192       0.278957
                          2       1    5pz               0.271192       0.278957

                          3       1    2s                0.492580       0.419052

                          4       1    3s                1.172790       0.803203

                          5       1    6px               1.607445       2.579943
                          5       1    6py               1.607445       2.579943
                          5       1    6pz               1.607445       2.579943

                          6       1    4s                4.913565       2.352110

       Atomic covalent radius [Angstrom]:                                  0.320

       Atomic van der Waals radius [Angstrom]:                             1.090

     The atoms of this atomic kind are PAW atoms (GAPW):
       Hard Gaussian function radius:                                      1.200
       Rho0 radius:                                                        1.200
       Maximum GTO radius used for PAW projector construction:            24.566

     GAPW Soft Basis Set                                  aug-SZV-MOLOPT-ae_soft

       Number of orbital shell sets:                                           1
       Number of orbital shells:                                               4
       Number of primitive Cartesian functions:                                6
       Number of Cartesian basis functions:                                    6
       Number of spherical basis functions:                                    6
       Norm type:                                                              2

       Normalised Cartesian orbitals:

                        Set   Shell   Orbital            Exponent    Coefficient

                          1       1    1s                0.065428       0.000000
                                                         0.100112       0.016532
                                                         0.243077       0.102760
                                                         0.625955       0.185857
                                                         1.822143       0.188385
                                                         6.513144       0.000000

                          1       2    2s                0.065428       0.083549
                                                         0.100112       0.009605
                                                         0.243077       0.002524
                                                         0.625955       0.013457
                                                         1.822143       0.000000
                                                         6.513144       0.000000

                          1       3    3s                0.065428       0.037407
                                                         0.100112      -0.169070
                                                         0.243077      -0.018899
                                                         0.625955       0.012806
                                                         1.822143       0.000000
                                                         6.513144       0.000000

                          1       4    2px               0.065428       0.059908
                                                         0.100112      -0.023770
                                                         0.243077       0.000032
                                                         0.625955       0.017779
                                                         1.822143       0.000000
                                                         6.513144       0.000000
                          1       4    2py               0.065428       0.059908
                                                         0.100112      -0.023770
                                                         0.243077       0.000032
                                                         0.625955       0.017779
                                                         1.822143       0.000000
                                                         6.513144       0.000000
                          1       4    2pz               0.065428       0.059908
                                                         0.100112      -0.023770
                                                         0.243077       0.000032
                                                         0.625955       0.017779
                                                         1.822143       0.000000
                                                         6.513144       0.000000

     AE Potential information for                                            ALL

       Description:                                       All-electron potential
                                          Krack, Parrinello, PCCP 2, 2105 (2000)

       Gaussian exponent of the core charge distribution:              12.500000
       Electronic configuration (s p d ...):                           1   0   0

  2. Atomic kind: C                                     Number of atoms:       7

     Orbital Basis Set                                         aug-SZV-MOLOPT-ae

       Number of orbital shell sets:                                           2
       Number of orbital shells:                                               6
       Number of primitive Cartesian functions:                               13
       Number of Cartesian basis functions:                                   15
       Number of spherical basis functions:                                   14
       Norm type:                                                              2

       Normalised Cartesian orbitals:

                        Set   Shell   Orbital            Exponent    Coefficient

                          1       1    2s                0.070000       0.000000
                                                         0.143687       0.040037
                                                         0.313471       0.177689
                                                         0.721783       0.139661
                                                         1.876046      -0.038599
                                                         6.036200      -0.128975
                                                        30.497239      -0.122578

                          1       2    3s                0.070000      -0.142268
                                                         0.143687       0.288819
                                                         0.313471       0.010360
                                                         0.721783       0.175994
                                                         1.876046       0.000000
                                                         6.036200       0.000000
                                                        30.497239       0.000000

                          1       3    3px               0.070000       0.000000
                                                         0.143687       0.012825
                                                         0.313471       0.142381
                                                         0.721783       0.396426
                                                         1.876046       0.544234
                                                         6.036200       0.508157
                                                        30.497239       0.384077
                          1       3    3py               0.070000       0.000000
                                                         0.143687       0.012825
                                                         0.313471       0.142381
                                                         0.721783       0.396426
                                                         1.876046       0.544234
                                                         6.036200       0.508157
                                                        30.497239       0.384077
                          1       3    3pz               0.070000       0.000000
                                                         0.143687       0.012825
                                                         0.313471       0.142381
                                                         0.721783       0.396426
                                                         1.876046       0.544234
                                                         6.036200       0.508157
                                                        30.497239       0.384077

                          1       4    4px               0.070000       0.076505
                                                         0.143687      -0.086104
                                                         0.313471       0.010230
                                                         0.721783       0.129894
                                                         1.876046       0.000000
                                                         6.036200       0.000000
                                                        30.497239       0.000000
                          1       4    4py               0.070000       0.076505
                                                         0.143687      -0.086104
                                                         0.313471       0.010230
                                                         0.721783       0.129894
                                                         1.876046       0.000000
                                                         6.036200       0.000000
                                                        30.497239       0.000000
                          1       4    4pz               0.070000       0.076505
                                                         0.143687      -0.086104
                                                         0.313471       0.010230
                                                         0.721783       0.129894
                                                         1.876046       0.000000
                                                         6.036200       0.000000
                                                        30.497239       0.000000

                          1       5    4dx2              0.070000       0.004316
                                                         0.143687       0.012639
                                                         0.313471       0.125057
                                                         0.721783       0.080411
                                                         1.876046       0.000000
                                                         6.036200       0.000000
                                                        30.497239       0.000000
                          1       5    4dxy              0.070000       0.007476
                                                         0.143687       0.021892
                                                         0.313471       0.216606
                                                         0.721783       0.139276
                                                         1.876046       0.000000
                                                         6.036200       0.000000
                                                        30.497239       0.000000
                          1       5    4dxz              0.070000       0.007476
                                                         0.143687       0.021892
                                                         0.313471       0.216606
                                                         0.721783       0.139276
                                                         1.876046       0.000000
                                                         6.036200       0.000000
                                                        30.497239       0.000000
                          1       5    4dy2              0.070000       0.004316
                                                         0.143687       0.012639
                                                         0.313471       0.125057
                                                         0.721783       0.080411
                                                         1.876046       0.000000
                                                         6.036200       0.000000
                                                        30.497239       0.000000
                          1       5    4dyz              0.070000       0.007476
                                                         0.143687       0.021892
                                                         0.313471       0.216606
                                                         0.721783       0.139276
                                                         1.876046       0.000000
                                                         6.036200       0.000000
                                                        30.497239       0.000000
                          1       5    4dz2              0.070000       0.004316
                                                         0.143687       0.012639
                                                         0.313471       0.125057
                                                         0.721783       0.080411
                                                         1.876046       0.000000
                                                         6.036200       0.000000
                                                        30.497239       0.000000

                          2       1    1s              742.737049       0.929185
                                                       136.180025       1.402437
                                                        38.098264       1.841991
                                                        13.087782       1.817278
                                                         5.082369       1.004768
                                                         2.093200       0.161650

     RI Auxiliary Basis Set             RI_aug-SZV-MOLOPT-ae_N_RI_048_s_p_d_f_g_

       Number of orbital shell sets:                                          14
       Number of orbital shells:                                              14
       Number of primitive Cartesian functions:                               14
       Number of Cartesian basis functions:                                   62
       Number of spherical basis functions:                                   48
       Norm type:                                                              2

       Normalised Cartesian orbitals:

                        Set   Shell   Orbital            Exponent    Coefficient

                          1       1    1s                0.182132       0.198701

                          2       1    7px               0.213594       0.206979
                          2       1    7py               0.213594       0.206979
                          2       1    7pz               0.213594       0.206979

                          3       1   10dx2              0.381125       0.304282
                          3       1   10dxy              0.381125       0.527033
                          3       1   10dxz              0.381125       0.527033
                          3       1   10dy2              0.381125       0.304282
                          3       1   10dyz              0.381125       0.527033
                          3       1   10dz2              0.381125       0.304282

                          4       1    2s                0.433905       0.381027

                          5       1   12fx3              0.524446       0.344573
                          5       1   12fx2y             0.524446       0.770488
                          5       1   12fx2z             0.524446       0.770488
                          5       1   12fxy2             0.524446       0.770488
                          5       1   12fxyz             0.524446       1.334524
                          5       1   12fxz2             0.524446       0.770488
                          5       1   12fy3              0.524446       0.344573
                          5       1   12fy2z             0.524446       0.770488
                          5       1   12fyz2             0.524446       0.770488
                          5       1   12fz3              0.524446       0.344573

                          6       1    8px               0.915857       1.277099
                          6       1    8py               0.915857       1.277099
                          6       1    8pz               0.915857       1.277099

                          7       1   14gx4              1.217666       1.912659
                          7       1   14gx3y             1.217666       5.060419
                          7       1   14gx3z             1.217666       5.060419
                          7       1   14gx2y2            1.217666       6.532973
                          7       1   14gx2yz            1.217666      11.315442
                          7       1   14gx2z2            1.217666       6.532973
                          7       1   14gxy3             1.217666       5.060419
                          7       1   14gxy2z            1.217666      11.315442
                          7       1   14gxyz2            1.217666      11.315442
                          7       1   14gxz3             1.217666       5.060419
                          7       1   14gy4              1.217666       1.912659
                          7       1   14gy3z             1.217666       5.060419
                          7       1   14gy2z2            1.217666       6.532973
                          7       1   14gyz3             1.217666       5.060419
                          7       1   14gz4              1.217666       1.912659

                          8       1   11dx2              1.581488       3.670921
                          8       1   11dxy              1.581488       6.358221
                          8       1   11dxz              1.581488       6.358221
                          8       1   11dy2              1.581488       3.670921
                          8       1   11dyz              1.581488       6.358221
                          8       1   11dz2              1.581488       3.670921

                          9       1    3s                1.620693       1.023730

                         10       1   13fx3              2.677157      13.496481
                         10       1   13fx2y             2.677157      30.179050
                         10       1   13fx2z             2.677157      30.179050
                         10       1   13fxy2             2.677157      30.179050
                         10       1   13fxyz             2.677157      52.271648
                         10       1   13fxz2             2.677157      30.179050
                         10       1   13fy3              2.677157      13.496481
                         10       1   13fy2z             2.677157      30.179050
                         10       1   13fyz2             2.677157      30.179050
                         10       1   13fz3              2.677157      13.496481

                         11       1    4s                5.999661       2.732154

                         12       1    9px               9.284861      23.102519
                         12       1    9py               9.284861      23.102519
                         12       1    9pz               9.284861      23.102519

                         13       1    5s               22.224963       7.295262

                         14       1    6s               82.329769      19.479498

       Atomic covalent radius [Angstrom]:                                  0.770

       Atomic van der Waals radius [Angstrom]:                             1.700

     The atoms of this atomic kind are PAW atoms (GAPW):
       Hard Gaussian function radius:                                      1.512
       Rho0 radius:                                                        1.512
       Maximum GTO radius used for PAW projector construction:            24.566

     GAPW Soft Basis Set                                  aug-SZV-MOLOPT-ae_soft

       Number of orbital shell sets:                                           2
       Number of orbital shells:                                               6
       Number of primitive Cartesian functions:                                6
       Number of Cartesian basis functions:                                   15
       Number of spherical basis functions:                                   14
       Norm type:                                                              2

       Normalised Cartesian orbitals:

                        Set   Shell   Orbital            Exponent    Coefficient

                          1       1    2s                0.070000       0.000000
                                                         0.143687       0.040037
                                                         0.313471       0.177689
                                                         0.721783       0.139661
                                                         1.876046      -0.038599

                          1       2    3s                0.070000      -0.142268
                                                         0.143687       0.288819
                                                         0.313471       0.010360
                                                         0.721783       0.175994
                                                         1.876046       0.000000

                          1       3    3px               0.070000       0.000000
                                                         0.143687       0.012825
                                                         0.313471       0.142381
                                                         0.721783       0.396426
                                                         1.876046       0.544234
                          1       3    3py               0.070000       0.000000
                                                         0.143687       0.012825
                                                         0.313471       0.142381
                                                         0.721783       0.396426
                                                         1.876046       0.544234
                          1       3    3pz               0.070000       0.000000
                                                         0.143687       0.012825
                                                         0.313471       0.142381
                                                         0.721783       0.396426
                                                         1.876046       0.544234

                          1       4    4px               0.070000       0.076505
                                                         0.143687      -0.086104
                                                         0.313471       0.010230
                                                         0.721783       0.129894
                                                         1.876046       0.000000
                          1       4    4py               0.070000       0.076505
                                                         0.143687      -0.086104
                                                         0.313471       0.010230
                                                         0.721783       0.129894
                                                         1.876046       0.000000
                          1       4    4pz               0.070000       0.076505
                                                         0.143687      -0.086104
                                                         0.313471       0.010230
                                                         0.721783       0.129894
                                                         1.876046       0.000000

                          1       5    4dx2              0.070000       0.004316
                                                         0.143687       0.012639
                                                         0.313471       0.125057
                                                         0.721783       0.080411
                                                         1.876046       0.000000
                          1       5    4dxy              0.070000       0.007476
                                                         0.143687       0.021892
                                                         0.313471       0.216606
                                                         0.721783       0.139276
                                                         1.876046       0.000000
                          1       5    4dxz              0.070000       0.007476
                                                         0.143687       0.021892
                                                         0.313471       0.216606
                                                         0.721783       0.139276
                                                         1.876046       0.000000
                          1       5    4dy2              0.070000       0.004316
                                                         0.143687       0.012639
                                                         0.313471       0.125057
                                                         0.721783       0.080411
                                                         1.876046       0.000000
                          1       5    4dyz              0.070000       0.007476
                                                         0.143687       0.021892
                                                         0.313471       0.216606
                                                         0.721783       0.139276
                                                         1.876046       0.000000
                          1       5    4dz2              0.070000       0.004316
                                                         0.143687       0.012639
                                                         0.313471       0.125057
                                                         0.721783       0.080411
                                                         1.876046       0.000000

                          2       1    1s                2.093200       0.161650

     AE Potential information for                                            ALL

       Description:                                       All-electron potential
                                          Krack, Parrinello, PCCP 2, 2105 (2000)

       Gaussian exponent of the core charge distribution:               4.109048
       Electronic configuration (s p d ...):                           4   2   0

  3. Atomic kind: Cl                                    Number of atoms:       1

     Orbital Basis Set                                         aug-SZV-MOLOPT-ae

       Number of orbital shell sets:                                           3
       Number of orbital shells:                                               8
       Number of primitive Cartesian functions:                               19
       Number of Cartesian basis functions:                                   19
       Number of spherical basis functions:                                   18
       Norm type:                                                              2

       Normalised Cartesian orbitals:

                        Set   Shell   Orbital            Exponent    Coefficient

                          1       1    1s                0.077000       0.000000
                                                         0.155732       0.048775
                                                         0.302177       0.213641
                                                         0.610646       0.074372
                                                         1.364210      -0.160589
                                                         3.637791      -0.133295
                                                        13.583529      -0.040055

                          1       2    2s                0.077000       0.113098
                                                         0.155732      -0.001418
                                                         0.302177      -0.032953
                                                         0.610646       0.000940
                                                         1.364210      -0.000650
                                                         3.637791      -0.006480
                                                        13.583529       0.000000

                          1       3    2px               0.077000       0.000000
                                                         0.155732       0.014765
                                                         0.302177       0.156150
                                                         0.610646       0.318942
                                                         1.364210       0.160173
                                                         3.637791      -0.130999
                                                        13.583529      -0.265378
                          1       3    2py               0.077000       0.000000
                                                         0.155732       0.014765
                                                         0.302177       0.156150
                                                         0.610646       0.318942
                                                         1.364210       0.160173
                                                         3.637791      -0.130999
                                                        13.583529      -0.265378
                          1       3    2pz               0.077000       0.000000
                                                         0.155732       0.014765
                                                         0.302177       0.156150
                                                         0.610646       0.318942
                                                         1.364210       0.160173
                                                         3.637791      -0.130999
                                                        13.583529      -0.265378

                          1       4    3px               0.077000       0.044533
                                                         0.155732       0.031887
                                                         0.302177       0.011087
                                                         0.610646      -0.025806
                                                         1.364210       0.119111
                                                         3.637791       0.324938
                                                        13.583529       0.000000
                          1       4    3py               0.077000       0.044533
                                                         0.155732       0.031887
                                                         0.302177       0.011087
                                                         0.610646      -0.025806
                                                         1.364210       0.119111
                                                         3.637791       0.324938
                                                        13.583529       0.000000
                          1       4    3pz               0.077000       0.044533
                                                         0.155732       0.031887
                                                         0.302177       0.011087
                                                         0.610646      -0.025806
                                                         1.364210       0.119111
                                                         3.637791       0.324938
                                                        13.583529       0.000000

                          1       5    3dx2              0.077000       0.003672
                                                         0.155732       0.001893
                                                         0.302177       0.117944
                                                         0.610646       0.097225
                                                         1.364210       0.782555
                                                         3.637791       0.872236
                                                        13.583529       0.000000
                          1       5    3dxy              0.077000       0.006359
                                                         0.155732       0.003279
                                                         0.302177       0.204285
                                                         0.610646       0.168398
                                                         1.364210       1.355425
                                                         3.637791       1.510758
                                                        13.583529       0.000000
                          1       5    3dxz              0.077000       0.006359
                                                         0.155732       0.003279
                                                         0.302177       0.204285
                                                         0.610646       0.168398
                                                         1.364210       1.355425
                                                         3.637791       1.510758
                                                        13.583529       0.000000
                          1       5    3dy2              0.077000       0.003672
                                                         0.155732       0.001893
                                                         0.302177       0.117944
                                                         0.610646       0.097225
                                                         1.364210       0.782555
                                                         3.637791       0.872236
                                                        13.583529       0.000000
                          1       5    3dyz              0.077000       0.006359
                                                         0.155732       0.003279
                                                         0.302177       0.204285
                                                         0.610646       0.168398
                                                         1.364210       1.355425
                                                         3.637791       1.510758
                                                        13.583529       0.000000
                          1       5    3dz2              0.077000       0.003672
                                                         0.155732       0.001893
                                                         0.302177       0.117944
                                                         0.610646       0.097225
                                                         1.364210       0.782555
                                                         3.637791       0.872236
                                                        13.583529       0.000000

                          2       1    1s              403.972966      -0.851102
                                                        79.956793      -0.895515
                                                        24.850512      -0.268003
                                                         9.560888       0.969714
                                                         4.152300       1.233756
                                                         1.903303       0.277989

                          2       2    2px             403.972966       9.705843
                                                        79.956793      12.841416
                                                        24.850512      13.753103
                                                         9.560888      10.017907
                                                         4.152300       3.598052
                                                         1.903303       0.324102
                          2       2    2py             403.972966       9.705843
                                                        79.956793      12.841416
                                                        24.850512      13.753103
                                                         9.560888      10.017907
                                                         4.152300       3.598052
                                                         1.903303       0.324102
                          2       2    2pz             403.972966       9.705843
                                                        79.956793      12.841416
                                                        24.850512      13.753103
                                                         9.560888      10.017907
                                                         4.152300       3.598052
                                                         1.903303       0.324102

                          3       1    1s             6236.545525       4.583362
                                                      1143.463795       6.917755
                                                       319.899964       9.085929
                                                       109.894271       8.964028
                                                        42.675161       4.956187
                                                        17.575988       0.797366

     RI Auxiliary Basis Set             RI_aug-SZV-MOLOPT-ae_N_RI_112_s_p_d_f_g_

       Number of orbital shell sets:                                          24
       Number of orbital shells:                                              24
       Number of primitive Cartesian functions:                               24
       Number of Cartesian basis functions:                                  167
       Number of spherical basis functions:                                  112
       Norm type:                                                              2

       Normalised Cartesian orbitals:

                        Set   Shell   Orbital            Exponent    Coefficient

                          1       1   20gx4              0.279015       0.033259
                          1       1   20gx3y             0.279015       0.087996
                          1       1   20gx3z             0.279015       0.087996
                          1       1   20gx2y2            0.279015       0.113602
                          1       1   20gx2yz            0.279015       0.196764
                          1       1   20gx2z2            0.279015       0.113602
                          1       1   20gxy3             0.279015       0.087996
                          1       1   20gxy2z            0.279015       0.196764
                          1       1   20gxyz2            0.279015       0.196764
                          1       1   20gxz3             0.279015       0.087996
                          1       1   20gy4              0.279015       0.033259
                          1       1   20gy3z             0.279015       0.087996
                          1       1   20gy2z2            0.279015       0.113602
                          1       1   20gyz3             0.279015       0.087996
                          1       1   20gz4              0.279015       0.033259

                          2       1    8px               0.330765       0.357552
                          2       1    8py               0.330765       0.357552
                          2       1    8pz               0.330765       0.357552

                          3       1    1s                0.339703       0.317128

                          4       1   14dx2              0.562661       0.601646
                          4       1   14dxy              0.562661       1.042081
                          4       1   14dxz              0.562661       1.042081
                          4       1   14dy2              0.562661       0.601646
                          4       1   14dyz              0.562661       1.042081
                          4       1   14dz2              0.562661       0.601646

                          5       1   17fx3              0.671109       0.600120
                          5       1   17fx2y             0.671109       1.341909
                          5       1   17fx2z             0.671109       1.341909
                          5       1   17fxy2             0.671109       1.341909
                          5       1   17fxyz             0.671109       2.324255
                          5       1   17fxz2             0.671109       1.341909
                          5       1   17fy3              0.671109       0.600120
                          5       1   17fy2z             0.671109       1.341909
                          5       1   17fyz2             0.671109       1.341909
                          5       1   17fz3              0.671109       0.600120

                          6       1    2s                0.711571       0.552172

                          7       1    9px               0.728662       0.959616
                          7       1    9py               0.728662       0.959616
                          7       1    9pz               0.728662       0.959616

                          8       1   21gx4              1.066208       1.327398
                          8       1   21gx3y             1.066208       3.511964
                          8       1   21gx3z             1.066208       3.511964
                          8       1   21gx2y2            1.066208       4.533926
                          8       1   21gx2yz            1.066208       7.852990
                          8       1   21gx2z2            1.066208       4.533926
                          8       1   21gxy3             1.066208       3.511964
                          8       1   21gxy2z            1.066208       7.852990
                          8       1   21gxyz2            1.066208       7.852990
                          8       1   21gxz3             1.066208       3.511964
                          8       1   21gy4              1.066208       1.327398
                          8       1   21gy3z             1.066208       3.511964
                          8       1   21gy2z2            1.066208       4.533926
                          8       1   21gyz3             1.066208       3.511964
                          8       1   21gz4              1.066208       1.327398

                          9       1   15dx2              1.149113       2.099155
                          9       1   15dxy              1.149113       3.635843
                          9       1   15dxz              1.149113       3.635843
                          9       1   15dy2              1.149113       2.099155
                          9       1   15dyz              1.149113       3.635843
                          9       1   15dz2              1.149113       2.099155

                         10       1   18fx3              1.633659       4.441887
                         10       1   18fx2y             1.633659       9.932362
                         10       1   18fx2z             1.633659       9.932362
                         10       1   18fxy2             1.633659       9.932362
                         10       1   18fxyz             1.633659      17.203356
                         10       1   18fxz2             1.633659       9.932362
                         10       1   18fy3              1.633659       4.441887
                         10       1   18fy2z             1.633659       9.932362
                         10       1   18fyz2             1.633659       9.932362
                         10       1   18fz3              1.633659       4.441887

                         11       1   23hx5              1.666224       3.899222
                         11       1   23hx4y             1.666224      11.697667
                         11       1   23hx4z             1.666224      11.697667
                         11       1   23hx3y2            1.666224      17.868481
                         11       1   23hx3yz            1.666224      30.949117
                         11       1   23hx3z2            1.666224      17.868481
                         11       1   23hx2y3            1.666224      17.868481
                         11       1   23hx2y2z           1.666224      39.955139
                         11       1   23hx2yz2           1.666224      39.955139
                         11       1   23hx2z3            1.666224      17.868481
                         11       1   23hxy4             1.666224      11.697667
                         11       1   23hxy3z            1.666224      30.949117
                         11       1   23hxy2z2           1.666224      39.955139
                         11       1   23hxyz3            1.666224      30.949117
                         11       1   23hxz4             1.666224      11.697667
                         11       1   23hy5              1.666224       3.899222
                         11       1   23hy4z             1.666224      11.697667
                         11       1   23hy3z2            1.666224      17.868481
                         11       1   23hy2z3            1.666224      17.868481
                         11       1   23hyz4             1.666224      11.697667
                         11       1   23hz5              1.666224       3.899222

                         12       1   24ix6              1.924248       5.207825
                         12       1   24ix5y             1.924248      17.272401
                         12       1   24ix5z             1.924248      17.272401
                         12       1   24ix4y2            1.924248      29.916676
                         12       1   24ix4yz            1.924248      51.817204
                         12       1   24ix4z2            1.924248      29.916676
                         12       1   24ix3y3            1.924248      35.397889
                         12       1   24ix3y2z           1.924248      79.152086
                         12       1   24ix3yz2           1.924248      79.152086
                         12       1   24ix3z3            1.924248      35.397889
                         12       1   24ix2y4            1.924248      29.916676
                         12       1   24ix2y3z           1.924248      79.152086
                         12       1   24ix2y2z2          1.924248     102.184904
                         12       1   24ix2yz3           1.924248      79.152086
                         12       1   24ix2z4            1.924248      29.916676
                         12       1   24ixy5             1.924248      17.272401
                         12       1   24ixy4z            1.924248      51.817204
                         12       1   24ixy3z2           1.924248      79.152086
                         12       1   24ixy2z3           1.924248      79.152086
                         12       1   24ixyz4            1.924248      51.817204
                         12       1   24ixz5             1.924248      17.272401
                         12       1   24iy6              1.924248       5.207825
                         12       1   24iy5z             1.924248      17.272401
                         12       1   24iy4z2            1.924248      29.916676
                         12       1   24iy3z3            1.924248      35.397889
                         12       1   24iy2z4            1.924248      29.916676
                         12       1   24iyz5             1.924248      17.272401
                         12       1   24iz6              1.924248       5.207825

                         13       1   22gx4              2.220982       9.986982
                         13       1   22gx3y             2.220982      26.423072
                         13       1   22gx3z             2.220982      26.423072
                         13       1   22gx2y2            2.220982      34.112039
                         13       1   22gx2yz            2.220982      59.083785
                         13       1   22gx2z2            2.220982      34.112039
                         13       1   22gxy3             2.220982      26.423072
                         13       1   22gxy2z            2.220982      59.083785
                         13       1   22gxyz2            2.220982      59.083785
                         13       1   22gxz3             2.220982      26.423072
                         13       1   22gy4              2.220982       9.986982
                         13       1   22gy3z             2.220982      26.423072
                         13       1   22gy2z2            2.220982      34.112039
                         13       1   22gyz3             2.220982      26.423072
                         13       1   22gz4              2.220982       9.986982

                         14       1    3s                2.450225       1.395772

                         15       1   10px               3.102999       5.870393
                         15       1   10py               3.102999       5.870393
                         15       1   10pz               3.102999       5.870393

                         16       1   19fx3              7.124016     122.063406
                         16       1   19fx2y             7.124016     272.942072
                         16       1   19fx2z             7.124016     272.942072
                         16       1   19fxy2             7.124016     272.942072
                         16       1   19fxyz             7.124016     472.749537
                         16       1   19fxz2             7.124016     272.942072
                         16       1   19fy3              7.124016     122.063406
                         16       1   19fy2z             7.124016     272.942072
                         16       1   19fyz2             7.124016     272.942072
                         16       1   19fz3              7.124016     122.063406

                         17       1    4s                8.846809       3.655948

                         18       1   11px              11.089446      28.845456
                         18       1   11py              11.089446      28.845456
                         18       1   11pz              11.089446      28.845456

                         19       1   16dx2             26.850040     521.270449
                         19       1   16dxy             26.850040     902.866903
                         19       1   16dxz             26.850040     902.866903
                         19       1   16dy2             26.850040     521.270449
                         19       1   16dyz             26.850040     902.866903
                         19       1   16dz2             26.850040     521.270449

                         20       1    5s               32.149471       9.622556

                         21       1   12px              38.748652     137.803687
                         21       1   12py              38.748652     137.803687
                         21       1   12pz              38.748652     137.803687

                         22       1    6s              116.893242      25.336822

                         23       1   13px             135.032822     656.129050
                         23       1   13py             135.032822     656.129050
                         23       1   13pz             135.032822     656.129050

                         24       1    7s              425.072226      66.720169

       Atomic covalent radius [Angstrom]:                                  0.990

       Atomic van der Waals radius [Angstrom]:                             1.750

     The atoms of this atomic kind are PAW atoms (GAPW):
       Hard Gaussian function radius:                                      1.512
       Rho0 radius:                                                        1.512
       Maximum GTO radius used for PAW projector construction:            24.566

     GAPW Soft Basis Set                                  aug-SZV-MOLOPT-ae_soft

       Number of orbital shell sets:                                           3
       Number of orbital shells:                                               8
       Number of primitive Cartesian functions:                                8
       Number of Cartesian basis functions:                                   19
       Number of spherical basis functions:                                   18
       Norm type:                                                              2

       Normalised Cartesian orbitals:

                        Set   Shell   Orbital            Exponent    Coefficient

                          1       1    1s                0.077000       0.000000
                                                         0.155732       0.048775
                                                         0.302177       0.213641
                                                         0.610646       0.074372
                                                         1.364210      -0.160589
                                                         3.637791      -0.133295

                          1       2    2s                0.077000       0.113098
                                                         0.155732      -0.001418
                                                         0.302177      -0.032953
                                                         0.610646       0.000940
                                                         1.364210      -0.000650
                                                         3.637791      -0.006480

                          1       3    2px               0.077000       0.000000
                                                         0.155732       0.014765
                                                         0.302177       0.156150
                                                         0.610646       0.318942
                                                         1.364210       0.160173
                                                         3.637791      -0.130999
                          1       3    2py               0.077000       0.000000
                                                         0.155732       0.014765
                                                         0.302177       0.156150
                                                         0.610646       0.318942
                                                         1.364210       0.160173
                                                         3.637791      -0.130999
                          1       3    2pz               0.077000       0.000000
                                                         0.155732       0.014765
                                                         0.302177       0.156150
                                                         0.610646       0.318942
                                                         1.364210       0.160173
                                                         3.637791      -0.130999

                          1       4    3px               0.077000       0.044533
                                                         0.155732       0.031887
                                                         0.302177       0.011087
                                                         0.610646      -0.025806
                                                         1.364210       0.119111
                                                         3.637791       0.324938
                          1       4    3py               0.077000       0.044533
                                                         0.155732       0.031887
                                                         0.302177       0.011087
                                                         0.610646      -0.025806
                                                         1.364210       0.119111
                                                         3.637791       0.324938
                          1       4    3pz               0.077000       0.044533
                                                         0.155732       0.031887
                                                         0.302177       0.011087
                                                         0.610646      -0.025806
                                                         1.364210       0.119111
                                                         3.637791       0.324938

                          1       5    3dx2              0.077000       0.003672
                                                         0.155732       0.001893
                                                         0.302177       0.117944
                                                         0.610646       0.097225
                                                         1.364210       0.782555
                                                         3.637791       0.872236
                          1       5    3dxy              0.077000       0.006359
                                                         0.155732       0.003279
                                                         0.302177       0.204285
                                                         0.610646       0.168398
                                                         1.364210       1.355425
                                                         3.637791       1.510758
                          1       5    3dxz              0.077000       0.006359
                                                         0.155732       0.003279
                                                         0.302177       0.204285
                                                         0.610646       0.168398
                                                         1.364210       1.355425
[...]
 cp2k_distribution_to_z_slices       73  9.0    0.273    0.314    1.493    1.532
 mp_sendrecv_dv                   11534 10.0    1.419    1.522    1.419    1.522
 transfer_rs2pw_30                   73  9.0    0.304    0.337    1.351    1.514
 dbm_multiply                       470 16.4    1.221    1.482    1.221    1.482
 powell_optimize                 971008 11.0    1.394    1.416    1.394    1.416
 dbcsr_sym_matrix_vector_mult      2737  7.0    0.020    0.021    1.057    1.334
 create_and_init_bs_env_for_gw        1  6.0    0.000    0.000    1.295    1.319
 calculate_rho_atom                 292  9.0    0.422    1.298    0.422    1.298
 calc_screening_functions             1 10.0    0.477    0.486    1.249    1.263
 mp_sum_dm                         3794  7.7    1.066    1.166    1.066    1.166
 transfer_rs2pw_90                   73  9.0    0.164    0.200    0.968    1.137
 fft_wrap_pw1pw2_90                 146 10.5    0.022    0.023    1.020    1.110
 G_times_3c                          60  8.0    0.000    0.000    1.063    1.063
 transfer_pw2rs_90                   73 12.0    0.141    0.166    0.874    1.052
 pw_scatter_p                       797 12.1    0.995    1.031    0.995    1.031
 abc_contract_xsmm                98109 10.5    0.249    0.980    0.249    0.980
 calc_pair_dist_radii                 1 10.0    0.320    0.327    0.942    0.968
 pw_derive                          651 11.3    0.863    0.914    0.863    0.914
 rs_gather_matrices                  73 10.0    0.002    0.003    0.777    0.906
 dbt_tas_mm_2                       174 15.2    0.000    0.000    0.883    0.884
 grid_integrate_task_list            73 10.0    0.080    0.807    0.080    0.807
 dbcsr_rep_row_to_rep_col_vec      2737  8.0    0.007    0.008    0.453    0.806
 dbcsr_complete_redistribute        562  9.5    0.017    0.024    0.775    0.801
 pw_gather_p                        727 11.8    0.747    0.799    0.747    0.799
 transfer_pw2rs_10                   73 12.0    0.117    0.126    0.637    0.794
 pw_copy                           1090 10.6    0.755    0.792    0.755    0.792
 copy_dbcsr_to_fm                   266  8.4    0.003    0.003    0.732    0.788
 dbt_tas_estimate_result_nze        235 12.9    0.054    0.079    0.732    0.732
 dbt_tas_distribution_new          1256 14.4    0.361    0.381    0.689    0.705
 compute_V_xc                         1  7.0    0.000    0.000    0.678    0.678
 parallel_gemm_fm                   328  8.3    0.000    0.000    0.618    0.665
 parallel_gemm_fm_cosma             328  9.3    0.618    0.665    0.618    0.665
 transfer_rs2pw_10                   73  9.0    0.074    0.078    0.446    0.643
 dbcsr_col_vec_to_rep_row          2737  8.0    0.009    0.010    0.426    0.638
 mp_bcast_dm                       2484  9.0    0.588    0.621    0.588    0.621
 dbt_tas_create_split              1570 15.2    0.001    0.002    0.610    0.612
 dbt_tas_create_split_rows_or_c    1570 16.2    0.004    0.004    0.609    0.611
 mp_bcast_dv                       2737  9.0    0.238    0.573    0.238    0.573
 rs_grid_zero                       367 11.2    0.535    0.567    0.535    0.567
 calculate_dm_sparse                 72  6.0    0.000    0.000    0.455    0.559
 cp_dbcsr_plus_fm_fm_t               72  7.0    0.001    0.001    0.455    0.558
 parallel_gemm_cfm                  283 10.4    0.000    0.000    0.543    0.555
 parallel_gemm_cfm_cosma            283 11.4    0.543    0.555    0.543    0.555
 mp_isend_dv                      23390 14.2    0.240    0.553    0.240    0.553
 fm_write                           121  9.0    0.005    0.200    0.363    0.547
 write_matrix                        91  8.0    0.000    0.000    0.397    0.547
 pw_poisson_set                      74  9.0    0.001    0.001    0.498    0.528
 dbm_redistribute                  1056 15.2    0.428    0.526    0.428    0.526
 pw_copy_to_array                   727 11.8    0.428    0.524    0.428    0.524
 convert_to_new_pgrid              1410 14.4    0.163    0.218    0.464    0.514
 reshape_mm_small                   470 14.4    0.032    0.034    0.497    0.501
 init_scf_run                         1  3.0    0.000    0.000    0.482    0.482
 fm_to_local_tensor                 152  8.0    0.001    0.002    0.474    0.477
 scf_env_initial_rho_setup            1  4.0    0.000    0.000    0.459    0.460
 compute_cfm_W_ikp_freq_j            30 10.0    0.001    0.002    0.449    0.453
 pw_copy_from_array                 797 12.1    0.372    0.442    0.372    0.442
 pw_integral_ab_c1d_c1d_gs           73  9.0    0.320    0.327    0.397    0.441
 check_sparsity_3c                    1  7.0    0.000    0.000    0.412    0.412
 copy_fm_to_dbcsr                   296  8.5    0.001    0.001    0.382    0.407
 pw_poisson_rebuild                  73  9.0    0.000    0.000    0.387    0.400
 ps_wavelet_create                    1 10.0    0.000    0.000    0.387    0.400
 RS_z_slice_distribution              1 11.0    0.249    0.271    0.387    0.400
 cp_fm_write_unformatted            125  9.9    0.372    0.376    0.373    0.396
 calculate_rho_atom_coeff            73  6.0    0.033    0.040    0.391    0.392
 dbcsr_desymmetrize_deep            272  9.4    0.004    0.006    0.333    0.388
 G_occ_vir                          121  8.0    0.001    0.005    0.315    0.362
 mp_alltoall_i11v                  1958 10.5    0.356    0.356    0.356    0.356
 pw_axpy                            725  9.3    0.323    0.343    0.323    0.343
 mp_isend_dm3                      2640 11.5    0.065    0.332    0.065    0.332
 get_Sigma_x                          1  7.0    0.000    0.000    0.326    0.326
 compute_Sigma_x                      1  8.0    0.000    0.000    0.326    0.326
 mp_cart_create                    3161 14.7    0.306    0.319    0.309    0.322
 mp_comm_split_direct              1572 17.2    0.311    0.313    0.312    0.313
 Vh_1c_gg_integrals                  73  8.0    0.013    0.179    0.239    0.303
 dbt_create_matrix                  152  9.0    0.001    0.001    0.295    0.298
 mp_sum_l                          3378 12.3    0.248    0.286    0.248    0.286
 dbt_tas_mm_3N                       58 15.5    0.000    0.000    0.242    0.281
 dbt_tas_mm_1N                      120 15.5    0.000    0.000    0.208    0.277
 dbt_copy                           450 10.1    0.003    0.003    0.228    0.273
 dbt_distribution_new_expert        316 10.5    0.002    0.002    0.267    0.267
 reshape_mm_compatible              470 14.4    0.005    0.006    0.256    0.260
 fft_wrap_pw1pw2_30                 146 10.5    0.004    0.005    0.241    0.259
 dbt_tas_mm_3T                      118 15.5    0.000    0.000    0.199    0.256
 dbcsr_multiply_generic              72  8.0    0.003    0.003    0.165    0.251
 update_ks_atom                      73  8.0    0.026    0.042    0.210    0.239
 RI_2c_integral_mat                   4  9.8    0.000    0.000    0.235    0.236
 mp_alltoall_i22                    834 10.5    0.169    0.233    0.169    0.233
 change_split                       705 14.9    0.002    0.002    0.229    0.233
 dbt_reshape                        271 10.9    0.073    0.089    0.186    0.229
 compute_MinvVsqrt_Vsqrt              1  9.0    0.000    0.000    0.226    0.226
 scale_and_distribute               146 10.0    0.065    0.217    0.065    0.217
 build_2c_integrals                   4 10.8    0.004    0.207    0.205    0.213
 qs_init_subsys                       1  2.0    0.001    0.002    0.202    0.202
 pw_zero                            434 10.3    0.192    0.201    0.192    0.201
 mp_max_i                          1016  6.6    0.132    0.198    0.132    0.198
 qs_env_setup                         1  3.0    0.000    0.000    0.197    0.198
 qs_env_rebuild_pw_env                2  3.5    0.000    0.000    0.196    0.197
 pw_env_rebuild                       1  5.0    0.000    0.000    0.196    0.197
 compute_QP_energies                  1  7.0    0.000    0.000    0.192    0.192
 mp_max_d                            79  7.0    0.154    0.192    0.154    0.192
 self_consistency_check              72  5.0    0.000    0.000    0.154    0.192
 cp_sm_mix                           72  6.0    0.000    0.000    0.154    0.192
 multiply_fm_W_MIC_time_with_Mi       2  9.0    0.000    0.000    0.180    0.180
 dbcsr_add_d                       5054  7.7    0.002    0.003    0.047    0.171
 pw_grid_setup                        4  6.0    0.000    0.000    0.170    0.171
 pw_grid_setup_internal               4  7.0    0.002    0.003    0.170    0.171
 dbcsr_add_anytype                 5054  8.7    0.006    0.019    0.045    0.168
 to_ikp_and_mo                       62  8.0    0.000    0.000    0.159    0.159
 multiply_cannon                     72  9.0    0.004    0.005    0.072    0.159
 fm_Gamma_ao_to_cfm_ikp_mo           62  9.0    0.000    0.000    0.154    0.156
 mp_waitall_2                      2575 16.2    0.113    0.151    0.113    0.151
 dbt_tas_replicate                  470 14.4    0.029    0.036    0.138    0.148
 mp_comm_dup                       1339 17.6    0.137    0.143    0.137    0.144
 multiply_cannon_loop                72 10.0    0.004    0.005    0.058    0.144
 mp_irecv_dv                      22865 14.2    0.019    0.140    0.019    0.140
 fft_wrap_pw1pw2_10                 146 10.5    0.001    0.001    0.134    0.139
 create_qs_kind_set                   1  2.0    0.000    0.000    0.134    0.134
 read_qs_kind                         4  3.0    0.058    0.072    0.134    0.134
 mp_isendrecv_dv                  23068 12.0    0.034    0.133    0.034    0.133
 multiply_cannon_metrocomm3        1440 11.0    0.002    0.002    0.037    0.131
 mp_cart_sub                        548 10.4    0.127    0.127    0.127    0.127
 dbt_communicate_buffer             271 11.9    0.002    0.002    0.083    0.122
 hybrid_alltoall_any                416 11.0    0.002    0.002    0.115    0.122
 check_for_restart_files              1  7.0    0.095    0.119    0.095    0.119
 dbcsr_finalize                    8140 11.3    0.013    0.033    0.052    0.116
 pw_grid_sort                         4  8.0    0.082    0.085    0.111    0.115
 mp_alltoall_i                     1725 14.4    0.091    0.105    0.091    0.105
 dbt_create_new                     158 10.0    0.002    0.002    0.103    0.103
 setup_time_and_frequency_minim       1  7.0    0.000    0.000    0.100    0.103
 calculate_rho0_atom                292  9.0    0.100    0.103    0.100    0.103
 compute_fm_chi_Gamma_freq           30 10.0    0.000    0.000    0.094    0.100
 cp_fm_symm                          72  7.0    0.084    0.097    0.084    0.097
 fill_fm_Sigma_c_Gamma_time           1  8.0    0.000    0.000    0.095    0.095
 cp_cfm_cholesky_decompose           35 10.7    0.090    0.093    0.090    0.093
 integrate_four_center_load          73 10.0    0.000    0.000    0.066    0.090
 hfx_load_balance                     1 11.0    0.000    0.000    0.066    0.090
 cp_cfm_cholesky_invert              31 11.0    0.084    0.088    0.084    0.088
 dbt_tas_communicate_buffer         940 16.7    0.013    0.015    0.071    0.088
 multiply_cannon_metrocomm4        1368 11.0    0.002    0.002    0.006    0.083
 parser_read_line                 25799  4.0    0.004    0.004    0.076    0.077
 cp_fm_power                          3  8.7    0.001    0.001    0.075    0.075
 parser_read_line_low                38  5.0    0.002    0.020    0.072    0.073
 broadcast_input_information         38  6.0    0.006    0.006    0.070    0.072
 rs_scatter_matrices                 73  7.0    0.001    0.001    0.068    0.071
 dbt_tas_merge                      174 14.2    0.015    0.019    0.058    0.069
 dbt_pgrid_create_expert            320 11.5    0.001    0.001    0.063    0.065
 dbt_tas_reshape                    470 15.0    0.004    0.004    0.061    0.065
 pw_scale                           289  9.5    0.040    0.060    0.040    0.060
 make_m2s                           144  9.0    0.002    0.002    0.056    0.060
 vxc_of_r_new                       432  9.0    0.001    0.009    0.004    0.060
 cp_cfm_geeig                         2  7.0    0.000    0.000    0.058    0.059
 dbcsr_iterator_start             38243  9.1    0.031    0.044    0.037    0.059
 mp_irecv_dm3                      2640 11.5    0.011    0.058    0.011    0.058
 dbm_reserve_blocks                2375 15.6    0.046    0.053    0.046    0.053
 mp_bcast_i_src                     152  7.0    0.043    0.052    0.043    0.052
 hfx_load_balance_range               1 12.0    0.000    0.000    0.028    0.052
 dbcsr_merge_all                   6336 12.4    0.018    0.039    0.025    0.051
 dbm_add                            470 14.4    0.040    0.050    0.040    0.050
 mp_rank_compare                   1524 13.0    0.045    0.049    0.045    0.049
 dos_pdos_ldos                        1  5.0    0.000    0.000    0.040    0.049
 dbt_tas_reserve_blocks_index      1905 14.6    0.002    0.002    0.042    0.048
 integrate_four_center_dist_KS       73 10.0    0.006    0.006    0.045    0.047
 scf_post_calculation_gpw             1  3.0    0.000    0.000    0.047    0.047
 write_available_results              1  4.0    0.000    0.000    0.047    0.047
 integrate_four_center_getP          73 10.0    0.006    0.006    0.044    0.047
 write_mo_free_results                1  5.0    0.004    0.005    0.046    0.047
 cp_fm_redistribute_start            78  8.1    0.000    0.000    0.025    0.045
 dbt_tas_replicate_alltoall         296 15.5    0.000    0.000    0.034    0.045
 dbt_tas_replicate_communicate_     296 15.5    0.001    0.001    0.033    0.043
 dbt_tas_merge_communicate_buff     174 15.2    0.001    0.001    0.031    0.041
 dbcsr_work_create                 7040 11.4    0.010    0.028    0.015    0.040
 get_l_sq_wghts_cos_tf_t_to_w         1  8.0    0.035    0.036    0.035    0.036
 dbcsr_copy                       11728  7.6    0.020    0.023    0.033    0.036
 build_3c_integrals_put_dbcsr      3750 10.6    0.010    0.036    0.010    0.036
 dbt_tas_mp_comm                    235 12.9    0.001    0.001    0.034    0.035
 get_l_sq_wghts_sin_tf_t_to_w         1  8.0    0.034    0.035    0.034    0.035
 dbt_tas_copy                       149 11.6    0.020    0.023    0.031    0.035
 hfx_load_balance_redist              1 12.0    0.003    0.003    0.033    0.033
 sort_shells                          4  9.0    0.029    0.033    0.029    0.033
 dbt_reserve_blocks_index           816 12.3    0.001    0.001    0.028    0.033
 dbt_nd_mp_comm                     152 10.0    0.000    0.000    0.030    0.032
 dbcsr_iterator_stop              38243  9.1    0.018    0.028    0.022    0.032
 get_l_sq_wghts_cos_tf_w_to_t         1  8.0    0.030    0.031    0.031    0.032
 make_images                        144 10.0    0.004    0.004    0.028    0.032
 multiply_cannon_metrocomm1        1440 11.0    0.001    0.001    0.005    0.030
 mp_send_dv                         125 10.9    0.001    0.029    0.001    0.029
 mp_sum_i                           630 14.2    0.028    0.029    0.028    0.029
 mixing_init                          1  5.0    0.026    0.028    0.029    0.029
 mp_maxloc_dv                      1623  1.0    0.022    0.028    0.022    0.028
 dbcsr_work_destroy_all            7040 12.3    0.008    0.020    0.011    0.028
 mp_isendrecv_lv                    158 13.0    0.001    0.027    0.001    0.027
 global_matrix_to_local_matrix      152  9.0    0.001    0.001    0.022    0.027
 local_dbt_to_global_mat             91  8.0    0.000    0.000    0.022    0.026
 dbt_tas_reshape_alltoall           470 16.0    0.000    0.000    0.021    0.025
 dbt_crop                           209 11.0    0.014    0.018    0.020    0.025
 dbcsr_create_new                 15238  9.1    0.018    0.018    0.024    0.025
 alloc_block_3c                     154 10.6    0.006    0.010    0.020    0.025
 mp_bcast_am_src                     38  7.0    0.020    0.023    0.021    0.024
 mp_bcast_b_src                     150  7.6    0.017    0.023    0.017    0.023
 xc_pw_smooth                        72 10.0    0.000    0.000    0.022    0.023
 mp_recv_dv                        2760 10.9    0.000    0.023    0.000    0.023
 hirshfeld_integration                1  6.0    0.001    0.007    0.023    0.023
 write_mo_set_to_restart             72  5.0    0.001    0.013    0.016    0.022
 make_images_sizes                  144 11.0    0.000    0.000    0.016    0.021
 mp_alltoall_i44                    144 12.0    0.016    0.021    0.016    0.021
 pw_grid_remap                        4  8.0    0.003    0.004    0.015    0.021
 dbt_tas_reshape_buffer_obtain      470 16.0    0.015    0.015    0.020    0.021
 local_matrix_to_global_matrix       91  9.0    0.000    0.000    0.016    0.020
 create_and_init_bs_env               1  5.0    0.000    0.000    0.019    0.019
 dbt_reserve_blocks_index_array     510 12.0    0.001    0.001    0.017    0.019
 dbcsr_crop_matrix                  432 10.0    0.001    0.002    0.018    0.019
 mp_sum_im3                           6  9.5    0.013    0.018    0.013    0.018
 offload_free_buffer                 81  8.4    0.015    0.018    0.015    0.018
 calculate_hirshfeld_normalizat       1  6.0    0.001    0.007    0.017    0.018
 create_fast_col_vec_access        5474  8.0    0.010    0.012    0.016    0.018
 dbcsr_data_new                   68265 11.7    0.010    0.017    0.010    0.017
 mp_sum_iv                           31  7.5    0.014    0.017    0.014    0.017
 dbcsr_data_release              111417 11.1    0.011    0.017    0.011    0.017
 compute_max_radius                   1  6.0    0.017    0.017    0.017    0.017
 dbt_tas_reserve_blocks_templat     619 13.6    0.001    0.002    0.015    0.017
 create_fast_row_vec_access        5474  8.0    0.010    0.011    0.016    0.017
 MIC_contribution_from_ikp           30 10.0    0.004    0.011    0.005    0.016
 cp_fm_uplo_to_full                  81  9.1    0.011    0.016    0.011    0.016
 write_mo_set_low                     4  6.0    0.000    0.000    0.015    0.016
 dbcsr_sym_matrix_vector_mult_l    2737  8.0    0.006    0.009    0.012    0.016
 pw_grid_assign                       4  8.0    0.013    0.014    0.015    0.015
 dbcsr_iterator_seek              38243 10.1    0.006    0.015    0.006    0.015
 mp_bcast_av                        812  1.0    0.005    0.007    0.012    0.015
 dbcsr_copy_submatrix               432 11.0    0.002    0.002    0.014    0.015
 diagonalize_ks_matrix                1  6.0    0.000    0.000    0.014    0.014
 cp_fm_geeig_canon                    1  7.0    0.000    0.000    0.014    0.014
 mp_comm_free                      6671 13.9    0.013    0.014    0.013    0.014
 dbcsr_filter_anytype               717  9.8    0.002    0.002    0.012    0.014
 mp_sum_im                           10  8.6    0.011    0.014    0.011    0.014
 dbcsr_scale_anytype               5055  9.7    0.003    0.005    0.011    0.013
 external_control                    72  5.0    0.000    0.008    0.012    0.013
 -------------------------------------------------------------------------------

 The number of warnings for this run is : 1
 
 -------------------------------------------------------------------------------
  **** **** ******  **  PROGRAM ENDED AT                 2025-05-30 10:56:53.958
 ***** ** ***  *** **   PROGRAM RAN ON                                  n2cn0225
 **    ****   ******    PROGRAM RAN BY                                  metdyn02
 ***** **    ** ** **   PROGRAM PROCESS ID                               1398401
  **** **  *******  **  PROGRAM STOPPED IN /scratch/hpc-prf-metdyn/metdyn02_Remi
                                           /10_MOL/05_MOL_low_scal/05_MOL/aUKBqs
                                           EOTmq69kFe5R_nOg/5k_set_final_qzvp/WA
                                           DQOJ/SZV/1e-5/5.0
