 DBCSR| CPU Multiplication driver                                           XSMM (U)
 DBCSR| Multrec recursion limit                                              512 (U)
 DBCSR| Multiplication stack size                                           1000 (D)
 DBCSR| Maximum elements for images                                    UNLIMITED (U)
 DBCSR| Multiplicative factor virtual images                                   1 (U)
 DBCSR| Use multiplication densification                                       T (D)
 DBCSR| Multiplication size stacks                                             3 (U)
 DBCSR| Use memory pool for CPU allocation                                     F (U)
 DBCSR| Number of 3D layers                                               SINGLE (U)
 DBCSR| Use MPI memory allocation                                              F (U)
 DBCSR| Use RMA algorithm                                                      F (U)
 DBCSR| Use Communication thread                                               T (U)
 DBCSR| Communication thread load                                             60 (D)
 DBCSR| MPI: My process id                                                     0
 DBCSR| MPI: Number of processes                                              80
 DBCSR| OMP: Current number of threads                                         8
 DBCSR| OMP: Max number of threads                                             8
 DBCSR| Split modifier for TAS multiplication algorithm                  1.0E+00 (U)


  **** **** ******  **  PROGRAM STARTED AT               2025-05-30 01:19:59.566
 ***** ** ***  *** **   PROGRAM STARTED ON                              n2cn0328
 **    ****   ******    PROGRAM STARTED BY                              metdyn02
 ***** **    ** ** **   PROGRAM PROCESS ID                               1550289
  **** **  *******  **  PROGRAM STARTED IN /scratch/hpc-prf-metdyn/metdyn02_Remi
                                           /10_MOL/05_MOL_low_scal/05_MOL/aUKBqs
                                           EOTmq69kFe5R_nOg/5k_set_final_qzvp/PU
                                           GDAX/SZV/1e-3/7.0

 CP2K| version string:                 CP2K version 2025.1 (Development Version)
 CP2K| source code revision number:                                  git:32ddf85
 CP2K| cp2kflags: omp libint fftw3 libxc libgrpp elpa parallel scalapack mpi_f08
 CP2K|             cosma xsmm plumed2 spglib libvori libbqb libvdwxc hdf5
 CP2K| is freely available from                            https://www.cp2k.org/
 CP2K| Program compiled at                         Mon May 19 11:32:37 CEST 2025
 CP2K| Program compiled on                                              n2login1
 CP2K| Program compiled for                                                local
 CP2K| Data directory path    /opt/software/pc2/EB-SW/software/CP2K/2024.1-foss-
 CP2K| Input file name                                                    GW.inp

 GLOBAL| Force Environment number                                              1
 GLOBAL| Basis set file name            /scratch/hpc-prf-metdyn/metdyn02_Remi/BA
 GLOBAL| Potential file name            /pc2/groups/hpc-prf-metdyn/metdyn02_Remi
 GLOBAL| MM Potential file name                                     MM_POTENTIAL
 GLOBAL| Coordinate file name                                      __STD_INPUT__
 GLOBAL| Method name                                                        CP2K
 GLOBAL| Project name                                                       MoS2
 GLOBAL| Run type                                                         ENERGY
 GLOBAL| FFT library                                                       FFTW3
 GLOBAL| Diagonalization library                                            ELPA
 GLOBAL| Cholesky decomposition library                                ScaLAPACK
 GLOBAL| DGEMM library                                                      BLAS
 GLOBAL| Minimum number of eigenvectors for ELPA usage                        16
 GLOBAL| Orthonormality check for eigenvectors                          DISABLED
 GLOBAL| Matrix multiplication library                                     COSMA
 GLOBAL| All-to-all communication in single precision                          F
 GLOBAL| FFTs using library dependent lengths                                  F
 GLOBAL| Grid backend                                                       AUTO
 GLOBAL| Global print level                                               MEDIUM
 GLOBAL| MPI I/O enabled                                                       T
 GLOBAL| Total number of message passing processes                            80
 GLOBAL| Number of threads for this process                                    8
 GLOBAL| This output is from process                                           0
 GLOBAL| OpenMP stack size per thread (OMP_STACKSIZE)                    default
 GLOBAL| CPU model name                          AMD EPYC 7763 64-Core Processor
 GLOBAL| CPUID                                                              1002

 MEMORY| system memory details [Kb]
 MEMORY|                        rank 0           min           max       average
 MEMORY| MemTotal            263897580     263897548     263897632     263897589
 MEMORY| MemFree             248166688     244948336     253002900     249085067
 MEMORY| Buffers                 44236         32008        143544         78119
 MEMORY| Cached               10456532       6530244      13693200       9776356
 MEMORY| Slab                  1875828       1253404       2309568       1793677
 MEMORY| SReclaimable           410084        280204        926612        454463
 MEMORY| MemLikelyFree       259077540     259077540     259992884     259394006


 *** Fundamental physical constants (SI units) ***

 *** Literature: B. J. Mohr and B. N. Taylor,
 ***             CODATA recommended values of the fundamental physical
 ***             constants: 2006, Web Version 5.1
 ***             http://physics.nist.gov/constants

 Speed of light in vacuum [m/s]                             2.99792458000000E+08
 Magnetic constant or permeability of vacuum [N/A**2]       1.25663706143592E-06
 Electric constant or permittivity of vacuum [F/m]          8.85418781762039E-12
 Planck constant (h) [J*s]                                  6.62606896000000E-34
 Planck constant (h-bar) [J*s]                              1.05457162825177E-34
 Elementary charge [C]                                      1.60217648700000E-19
 Electron mass [kg]                                         9.10938215000000E-31
 Electron g factor [ ]                                     -2.00231930436220E+00
 Proton mass [kg]                                           1.67262163700000E-27
 Fine-structure constant                                    7.29735253760000E-03
 Rydberg constant [1/m]                                     1.09737315685270E+07
 Avogadro constant [1/mol]                                  6.02214179000000E+23
 Boltzmann constant [J/K]                                   1.38065040000000E-23
 Atomic mass unit [kg]                                      1.66053878200000E-27
 Bohr radius [m]                                            5.29177208590000E-11

 *** Conversion factors ***

 [u] -> [a.u.]                                              1.82288848426455E+03
 [Angstrom] -> [Bohr] = [a.u.]                              1.88972613288564E+00
 [a.u.] = [Bohr] -> [Angstrom]                              5.29177208590000E-01
 [a.u.] -> [s]                                              2.41888432650478E-17
 [a.u.] -> [fs]                                             2.41888432650478E-02
 [a.u.] -> [J]                                              4.35974393937059E-18
 [a.u.] -> [N]                                              8.23872205491840E-08
 [a.u.] -> [K]                                              3.15774647902944E+05
 [a.u.] -> [kJ/mol]                                         2.62549961709828E+03
 [a.u.] -> [kcal/mol]                                       6.27509468713739E+02
 [a.u.] -> [Pa]                                             2.94210107994716E+13
 [a.u.] -> [bar]                                            2.94210107994716E+08
 [a.u.] -> [atm]                                            2.90362800883016E+08
 [a.u.] -> [eV]                                             2.72113838565563E+01
 [a.u.] -> [Hz]                                             6.57968392072181E+15
 [a.u.] -> [1/cm] (wave numbers)                            2.19474631370540E+05
 [a.u./Bohr**2] -> [1/cm]                                   5.14048714338585E+03
 

 CELL_TOP| Volume [angstrom^3]:                                     27000.000000
 CELL_TOP| Vector a [angstrom    30.000     0.000     0.000   |a| =    30.000000
 CELL_TOP| Vector b [angstrom     0.000    30.000     0.000   |b| =    30.000000
 CELL_TOP| Vector c [angstrom     0.000     0.000    30.000   |c| =    30.000000
 CELL_TOP| Angle (b,c), alpha [degree]:                                90.000000
 CELL_TOP| Angle (a,c), beta  [degree]:                                90.000000
 CELL_TOP| Angle (a,b), gamma [degree]:                                90.000000
 CELL_TOP| Numerically orthorhombic:                                         YES
 CELL_TOP| Periodicity                                                      NONE

 GENERATE|  Preliminary Number of Bonds generated:                             0
 GENERATE|  Achieved consistency in connectivity generation.

 CELL| Volume [angstrom^3]:                                         27000.000000
 CELL| Vector a [angstrom]:      30.000     0.000     0.000   |a| =    30.000000
 CELL| Vector b [angstrom]:       0.000    30.000     0.000   |b| =    30.000000
 CELL| Vector c [angstrom]:       0.000     0.000    30.000   |c| =    30.000000
 CELL| Angle (b,c), alpha [degree]:                                    90.000000
 CELL| Angle (a,c), beta  [degree]:                                    90.000000
 CELL| Angle (a,b), gamma [degree]:                                    90.000000
 CELL| Numerically orthorhombic:                                             YES
 CELL| Periodicity                                                          NONE

 CELL_REF| Volume [angstrom^3]:                                     27000.000000
 CELL_REF| Vector a [angstrom    30.000     0.000     0.000   |a| =    30.000000
 CELL_REF| Vector b [angstrom     0.000    30.000     0.000   |b| =    30.000000
 CELL_REF| Vector c [angstrom     0.000     0.000    30.000   |c| =    30.000000
 CELL_REF| Angle (b,c), alpha [degree]:                                90.000000
 CELL_REF| Angle (a,c), beta  [degree]:                                90.000000
 CELL_REF| Angle (a,b), gamma [degree]:                                90.000000
 CELL_REF| Numerically orthorhombic:                                         YES
 CELL_REF| Periodicity                                                      NONE

 *******************************************************************************
 *******************************************************************************
 **                                                                           **
 **     #####                         ##              ##                      **
 **    ##   ##            ##          ##              ##                      **
 **   ##     ##                       ##            ######                    **
 **   ##     ##  ##   ##  ##   #####  ##  ##   ####   ##    #####    #####    **
 **   ##     ##  ##   ##  ##  ##      ## ##   ##      ##   ##   ##  ##   ##   **
 **   ##  ## ##  ##   ##  ##  ##      ####     ###    ##   ######   ######    **
 **    ##  ###   ##   ##  ##  ##      ## ##      ##   ##   ##       ##        **
 **     #######   #####   ##   #####  ##  ##  ####    ##    #####   ##        **
 **           ##                                                    ##        **
 **                                                                           **
 **                                                ... make the atoms dance   **
 **                                                                           **
 **            Copyright (C) by CP2K developers group (2000-2025)             **
 **                      J. Chem. Phys. 152, 194103 (2020)                    **
 **                                                                           **
 *******************************************************************************

 DFT| Spin restricted Kohn-Sham (RKS) calculation                            RKS
 DFT| Multiplicity                                                             1
 DFT| Number of spin states                                                    1
 DFT| Charge                                                                   0
 DFT| Self-interaction correction (SIC)                                       NO
 DFT| Cutoffs: density                                              1.000000E-10
 DFT|          gradient                                             1.000000E-10
 DFT|          tau                                                  1.000000E-10
 DFT|          cutoff_smoothing_range                               0.000000E+00
 DFT| XC density smoothing                                                  NONE
 DFT| XC derivatives                                                          PW

 FUNCTIONAL| PBE:
 FUNCTIONAL| J.P.Perdew, K.Burke, M.Ernzerhof, Phys. Rev. Letter, vol. 77, n 18,
 FUNCTIONAL|  pp. 3865-3868, (1996)sx=0.750sc=1.000{spin unpolarized}           


 QS| Method:                                                                GAPW
 QS| Density plane wave grid type                        NON-SPHERICAL FULLSPACE
 QS| Number of grid levels:                                                    4
 QS| Density cutoff [a.u.]:                                                250.0
 QS| Multi grid cutoff [a.u.]: 1) grid level                               250.0
 QS|                           2) grid level                                83.3
 QS|                           3) grid level                                27.8
 QS|                           4) grid level                                 9.3
 QS| Grid level progression factor:                                          3.0
 QS| Relative density cutoff [a.u.]:                                        50.0
 QS| Interaction thresholds: eps_pgf_orb:                                1.0E-12
 QS|                         eps_filter_matrix:                          0.0E+00
 QS|                         eps_core_charge:                            1.0E-14
 QS|                         eps_rho_gspace:                             1.0E-12
 QS|                         eps_rho_rspace:                             1.0E-12
 QS|                         eps_gvg_rspace:                             1.0E-06
 QS|                         eps_ppl:                                    1.0E-02
 QS|                         eps_ppnl:                                   1.0E-08
 QS| GAPW|      One center basis from orbital basis primitives
 QS| GAPW|                   eps_fit:                                    1.0E-04
 QS| GAPW|                   eps_iso:                                    1.0E-12
 QS| GAPW|                   eps_svd:                                    1.0E-08
 QS| GAPW|                   eps_cpc:                                    1.0E-12
 QS| GAPW|   atom-r-grid: quadrature:                                     GC_LOG
 QS| GAPW|      atom-s-grid:  max l :                                          4
 QS| GAPW|      max_l_rho0 :                                                   2


 ATOMIC KIND INFORMATION

  1. Atomic kind: F                                     Number of atoms:       2

     Orbital Basis Set                                         aug-SZV-MOLOPT-ae

       Number of orbital shell sets:                                           2
       Number of orbital shells:                                               6
       Number of primitive Cartesian functions:                               14
       Number of Cartesian basis functions:                                   15
       Number of spherical basis functions:                                   14
       Norm type:                                                              2

       Normalised Cartesian orbitals:

                        Set   Shell   Orbital            Exponent    Coefficient

                          1       1    1s                0.080000       0.000000
                                                         0.150000       0.000000
                                                         0.315820       0.072273
                                                         0.689002       0.320758
                                                         1.586463       0.252111
                                                         4.123510      -0.069677
                                                        13.267438      -0.232821
                                                        67.032281      -0.221274

                          1       2    2s                0.080000       0.215695
                                                         0.150000      -0.211932
                                                         0.315820      -0.108152
                                                         0.689002       0.433639
                                                         1.586463      -0.257713
                                                         4.123510       0.098829
                                                        13.267438       0.000000
                                                        67.032281       0.000000

                          1       3    2px               0.080000       0.000000
                                                         0.150000       0.000000
                                                         0.315820       0.034324
                                                         0.689002       0.381050
                                                         1.586463       1.060942
                                                         4.123510       1.456516
                                                        13.267438       1.359964
                                                        67.032281       1.027893
                          1       3    2py               0.080000       0.000000
                                                         0.150000       0.000000
                                                         0.315820       0.034324
                                                         0.689002       0.381050
                                                         1.586463       1.060942
                                                         4.123510       1.456516
                                                        13.267438       1.359964
                                                        67.032281       1.027893
                          1       3    2pz               0.080000       0.000000
                                                         0.150000       0.000000
                                                         0.315820       0.034324
                                                         0.689002       0.381050
                                                         1.586463       1.060942
                                                         4.123510       1.456516
                                                        13.267438       1.359964
                                                        67.032281       1.027893

                          1       4    3px               0.080000       0.095170
                                                         0.150000      -0.118369
                                                         0.315820       0.128679
                                                         0.689002      -0.166392
                                                         1.586463      -0.515032
                                                         4.123510       0.009820
                                                        13.267438       0.000000
                                                        67.032281       0.000000
                          1       4    3py               0.080000       0.095170
                                                         0.150000      -0.118369
                                                         0.315820       0.128679
                                                         0.689002      -0.166392
                                                         1.586463      -0.515032
                                                         4.123510       0.009820
                                                        13.267438       0.000000
                                                        67.032281       0.000000
                          1       4    3pz               0.080000       0.095170
                                                         0.150000      -0.118369
                                                         0.315820       0.128679
                                                         0.689002      -0.166392
                                                         1.586463      -0.515032
                                                         4.123510       0.009820
                                                        13.267438       0.000000
                                                        67.032281       0.000000

                          1       5    3dx2              0.080000       0.005746
                                                         0.150000      -0.014463
                                                         0.315820      -0.016939
                                                         0.689002       0.279904
                                                         1.586463       2.240938
                                                         4.123510       4.953143
                                                        13.267438       0.000000
                                                        67.032281       0.000000
                          1       5    3dxy              0.080000       0.009952
                                                         0.150000      -0.025050
                                                         0.315820      -0.029340
                                                         0.689002       0.484808
                                                         1.586463       3.881418
                                                         4.123510       8.579095
                                                        13.267438       0.000000
                                                        67.032281       0.000000
                          1       5    3dxz              0.080000       0.009952
                                                         0.150000      -0.025050
                                                         0.315820      -0.029340
                                                         0.689002       0.484808
                                                         1.586463       3.881418
                                                         4.123510       8.579095
                                                        13.267438       0.000000
                                                        67.032281       0.000000
                          1       5    3dy2              0.080000       0.005746
                                                         0.150000      -0.014463
                                                         0.315820      -0.016939
                                                         0.689002       0.279904
                                                         1.586463       2.240938
                                                         4.123510       4.953143
                                                        13.267438       0.000000
                                                        67.032281       0.000000
                          1       5    3dyz              0.080000       0.009952
                                                         0.150000      -0.025050
                                                         0.315820      -0.029340
                                                         0.689002       0.484808
                                                         1.586463       3.881418
                                                         4.123510       8.579095
                                                        13.267438       0.000000
                                                        67.032281       0.000000
                          1       5    3dz2              0.080000       0.005746
                                                         0.150000      -0.014463
                                                         0.315820      -0.016939
                                                         0.689002       0.279904
                                                         1.586463       2.240938
                                                         4.123510       4.953143
                                                        13.267438       0.000000
                                                        67.032281       0.000000

                          2       1    1s             1728.626574       1.750862
                                                       316.941790       2.642610
                                                        88.668891       3.470861
                                                        30.460157       3.424294
                                                        11.828570       1.893283
                                                         4.871659       0.304597

     RI Auxiliary Basis Set             RI_aug-SZV-MOLOPT-ae_N_RI_034_s_p_d_f_g_

       Number of orbital shell sets:                                          14
       Number of orbital shells:                                              14
       Number of primitive Cartesian functions:                               14
       Number of Cartesian basis functions:                                   38
       Number of spherical basis functions:                                   34
       Norm type:                                                              2

       Normalised Cartesian orbitals:

                        Set   Shell   Orbital            Exponent    Coefficient

                          1       1    8px               0.170628       0.156316
                          1       1    8py               0.170628       0.156316
                          1       1    8pz               0.170628       0.156316

                          2       1    1s                0.225197       0.232988

                          3       1    2s                1.243858       0.839437

                          4       1    9px               2.232071       3.888886
                          4       1    9py               2.232071       3.888886
                          4       1    9pz               2.232071       3.888886

                          5       1   13dx2              2.812635      10.054438
                          5       1   13dxy              2.812635      17.414798
                          5       1   13dxz              2.812635      17.414798
                          5       1   13dy2              2.812635      10.054438
                          5       1   13dyz              2.812635      17.414798
                          5       1   13dz2              2.812635      10.054438

                          6       1   14fx3              3.072665      18.401944
                          6       1   14fx2y             3.072665      41.147999
                          6       1   14fx2z             3.072665      41.147999
                          6       1   14fxy2             3.072665      41.147999
                          6       1   14fxyz             3.072665      71.270424
                          6       1   14fxz2             3.072665      41.147999
                          6       1   14fy3              3.072665      18.401944
                          6       1   14fy2z             3.072665      41.147999
                          6       1   14fyz2             3.072665      41.147999
                          6       1   14fz3              3.072665      18.401944

                          7       1    3s                4.940713       2.361850

                          8       1   10px               6.283367      14.180143
                          8       1   10py               6.283367      14.180143
                          8       1   10pz               6.283367      14.180143

                          9       1    4s               16.271848       5.774146

                         10       1   11px              27.599224      90.169816
                         10       1   11py              27.599224      90.169816
                         10       1   11pz              27.599224      90.169816

                         11       1    5s               53.113626      14.022148

                         12       1   12px             113.016410     525.251104
                         12       1   12py             113.016410     525.251104
                         12       1   12pz             113.016410     525.251104

                         13       1    6s              183.161985      35.484329

                         14       1    7s              649.150209      91.657708

       Atomic covalent radius [Angstrom]:                                  0.720

       Atomic van der Waals radius [Angstrom]:                             1.470

     The atoms of this atomic kind are PAW atoms (GAPW):
       Hard Gaussian function radius:                                      1.512
       Rho0 radius:                                                        1.512
       Maximum GTO radius used for PAW projector construction:            24.566

     GAPW Soft Basis Set                                  aug-SZV-MOLOPT-ae_soft

       Number of orbital shell sets:                                           2
       Number of orbital shells:                                               6
       Number of primitive Cartesian functions:                                6
       Number of Cartesian basis functions:                                   15
       Number of spherical basis functions:                                   14
       Norm type:                                                              2

       Normalised Cartesian orbitals:

                        Set   Shell   Orbital            Exponent    Coefficient

                          1       1    1s                0.080000       0.000000
                                                         0.150000       0.000000
                                                         0.315820       0.072273
                                                         0.689002       0.320758
                                                         1.586463       0.252111
                                                         4.123510       0.000000

                          1       2    2s                0.080000       0.215695
                                                         0.150000      -0.211932
                                                         0.315820      -0.108152
                                                         0.689002       0.433639
                                                         1.586463      -0.257713
                                                         4.123510       0.000000

                          1       3    2px               0.080000       0.000000
                                                         0.150000       0.000000
                                                         0.315820       0.034324
                                                         0.689002       0.381050
                                                         1.586463       1.060942
                                                         4.123510       1.456516
                          1       3    2py               0.080000       0.000000
                                                         0.150000       0.000000
                                                         0.315820       0.034324
                                                         0.689002       0.381050
                                                         1.586463       1.060942
                                                         4.123510       1.456516
                          1       3    2pz               0.080000       0.000000
                                                         0.150000       0.000000
                                                         0.315820       0.034324
                                                         0.689002       0.381050
                                                         1.586463       1.060942
                                                         4.123510       1.456516

                          1       4    3px               0.080000       0.095170
                                                         0.150000      -0.118369
                                                         0.315820       0.128679
                                                         0.689002      -0.166392
                                                         1.586463      -0.515032
                                                         4.123510       0.009820
                          1       4    3py               0.080000       0.095170
                                                         0.150000      -0.118369
                                                         0.315820       0.128679
                                                         0.689002      -0.166392
                                                         1.586463      -0.515032
                                                         4.123510       0.009820
                          1       4    3pz               0.080000       0.095170
                                                         0.150000      -0.118369
                                                         0.315820       0.128679
                                                         0.689002      -0.166392
                                                         1.586463      -0.515032
                                                         4.123510       0.009820

                          1       5    3dx2              0.080000       0.005746
                                                         0.150000      -0.014463
                                                         0.315820      -0.016939
                                                         0.689002       0.279904
                                                         1.586463       2.240938
                                                         4.123510       4.953143
                          1       5    3dxy              0.080000       0.009952
                                                         0.150000      -0.025050
                                                         0.315820      -0.029340
                                                         0.689002       0.484808
                                                         1.586463       3.881418
                                                         4.123510       8.579095
                          1       5    3dxz              0.080000       0.009952
                                                         0.150000      -0.025050
                                                         0.315820      -0.029340
                                                         0.689002       0.484808
                                                         1.586463       3.881418
                                                         4.123510       8.579095
                          1       5    3dy2              0.080000       0.005746
                                                         0.150000      -0.014463
                                                         0.315820      -0.016939
                                                         0.689002       0.279904
                                                         1.586463       2.240938
                                                         4.123510       4.953143
                          1       5    3dyz              0.080000       0.009952
                                                         0.150000      -0.025050
                                                         0.315820      -0.029340
                                                         0.689002       0.484808
                                                         1.586463       3.881418
                                                         4.123510       8.579095
                          1       5    3dz2              0.080000       0.005746
                                                         0.150000      -0.014463
                                                         0.315820      -0.016939
                                                         0.689002       0.279904
                                                         1.586463       2.240938
                                                         4.123510       4.953143

                          2       1    1s         

     AE Potential information for                                            ALL

       Description:                                       All-electron potential
                                          Krack, Parrinello, PCCP 2, 2105 (2000)

       Gaussian exponent of the core charge distribution:              10.470541
       Electronic configuration (s p d ...):                           4   5   0

  2. Atomic kind: C                                     Number of atoms:       6

     Orbital Basis Set                                         aug-SZV-MOLOPT-ae

       Number of orbital shell sets:                                           2
       Number of orbital shells:                                               6
       Number of primitive Cartesian functions:                               13
       Number of Cartesian basis functions:                                   15
       Number of spherical basis functions:                                   14
       Norm type:                                                              2

       Normalised Cartesian orbitals:

                        Set   Shell   Orbital            Exponent    Coefficient

                          1       1    2s                0.070000       0.000000
                                                         0.143687       0.040037
                                                         0.313471       0.177689
                                                         0.721783       0.139661
                                                         1.876046      -0.038599
                                                         6.036200      -0.128975
                                                        30.497239      -0.122578

                          1       2    3s                0.070000      -0.142268
                                                         0.143687       0.288819
                                                         0.313471       0.010360
                                                         0.721783       0.175994
                                                         1.876046       0.000000
                                                         6.036200       0.000000
                                                        30.497239       0.000000

                          1       3    3px               0.070000       0.000000
                                                         0.143687       0.012825
                                                         0.313471       0.142381
                                                         0.721783       0.396426
                                                         1.876046       0.544234
                                                         6.036200       0.508157
                                                        30.497239       0.384077
                          1       3    3py               0.070000       0.000000
                                                         0.143687       0.012825
                                                         0.313471       0.142381
                                                         0.721783       0.396426
                                                         1.876046       0.544234
                                                         6.036200       0.508157
                                                        30.497239       0.384077
                          1       3    3pz               0.070000       0.000000
                                                         0.143687       0.012825
                                                         0.313471       0.142381
                                                         0.721783       0.396426
                                                         1.876046       0.544234
                                                         6.036200       0.508157
                                                        30.497239       0.384077

                          1       4    4px               0.070000       0.076505
                                                         0.143687      -0.086104
                                                         0.313471       0.010230
                                                         0.721783       0.129894
                                                         1.876046       0.000000
                                                         6.036200       0.000000
                                                        30.497239       0.000000
                          1       4    4py               0.070000       0.076505
                                                         0.143687      -0.086104
                                                         0.313471       0.010230
                                                         0.721783       0.129894
                                                         1.876046       0.000000
                                                         6.036200       0.000000
                                                        30.497239       0.000000
                          1       4    4pz               0.070000       0.076505
                                                         0.143687      -0.086104
                                                         0.313471       0.010230
                                                         0.721783       0.129894
                                                         1.876046       0.000000
                                                         6.036200       0.000000
                                                        30.497239       0.000000

                          1       5    4dx2              0.070000       0.004316
                                                         0.143687       0.012639
                                                         0.313471       0.125057
                                                         0.721783       0.080411
                                                         1.876046       0.000000
                                                         6.036200       0.000000
                                                        30.497239       0.000000
                          1       5    4dxy              0.070000       0.007476
                                                         0.143687       0.021892
                                                         0.313471       0.216606
                                                         0.721783       0.139276
                                                         1.876046       0.000000
                                                         6.036200       0.000000
                                                        30.497239       0.000000
                          1       5    4dxz              0.070000       0.007476
                                                         0.143687       0.021892
                                                         0.313471       0.216606
                                                         0.721783       0.139276
                                                         1.876046       0.000000
                                                         6.036200       0.000000
                                                        30.497239       0.000000
                          1       5    4dy2              0.070000       0.004316
                                                         0.143687       0.012639
                                                         0.313471       0.125057
                                                         0.721783       0.080411
                                                         1.876046       0.000000
                                                         6.036200       0.000000
                                                        30.497239       0.000000
                          1       5    4dyz              0.070000       0.007476
                                                         0.143687       0.021892
                                                         0.313471       0.216606
                                                         0.721783       0.139276
                                                         1.876046       0.000000
                                                         6.036200       0.000000
                                                        30.497239       0.000000
                          1       5    4dz2              0.070000       0.004316
                                                         0.143687       0.012639
                                                         0.313471       0.125057
                                                         0.721783       0.080411
                                                         1.876046       0.000000
                                                         6.036200       0.000000
                                                        30.497239       0.000000

                          2       1    1s              742.737049       0.929185
                                                       136.180025       1.402437
                                                        38.098264       1.841991
                                                        13.087782       1.817278
                                                         5.082369       1.004768
                                                         2.093200       0.161650

     RI Auxiliary Basis Set             RI_aug-SZV-MOLOPT-ae_N_RI_023_s_p_d_f_g_

       Number of orbital shell sets:                                           9
       Number of orbital shells:                                               9
       Number of primitive Cartesian functions:                                9
       Number of Cartesian basis functions:                                   27
       Number of spherical basis functions:                                   23
       Norm type:                                                              2

       Normalised Cartesian orbitals:

                        Set   Shell   Orbital            Exponent    Coefficient

                          1       1    1s                0.205603       0.217612

                          2       1    6px               0.237635       0.236498
                          2       1    6py               0.237635       0.236498
                          2       1    6pz               0.237635       0.236498

                          3       1    8dx2              0.581736       0.637793
                          3       1    8dxy              0.581736       1.104690
                          3       1    8dxz              0.581736       1.104690
                          3       1    8dy2              0.581736       0.637793
                          3       1    8dyz              0.581736       1.104690
                          3       1    8dz2              0.581736       0.637793

                          4       1    2s                0.804962       0.605678

                          5       1    7px               1.023757       1.467864
                          5       1    7py               1.023757       1.467864
                          5       1    7pz               1.023757       1.467864

                          6       1    9fx3              1.116833       1.887677
                          6       1    9fx2y             1.116833       4.220974
                          6       1    9fx2z             1.116833       4.220974
                          6       1    9fxy2             1.116833       4.220974
                          6       1    9fxyz             1.116833       7.310942
                          6       1    9fxz2             1.116833       4.220974
                          6       1    9fy3              1.116833       1.887677
                          6       1    9fy2z             1.116833       4.220974
                          6       1    9fyz2             1.116833       4.220974
                          6       1    9fz3              1.116833       1.887677

                          7       1    3s                4.605726       2.240700

                          8       1    4s               20.169126       6.783056

                          9       1    5s               81.661898      19.360862

       Atomic covalent radius [Angstrom]:                                  0.770

       Atomic van der Waals radius [Angstrom]:                             1.700

     The atoms of this atomic kind are PAW atoms (GAPW):
       Hard Gaussian function radius:                                      1.512
       Rho0 radius:                                                        1.512
       Maximum GTO radius used for PAW projector construction:            24.566

     GAPW Soft Basis Set                                  aug-SZV-MOLOPT-ae_soft

       Number of orbital shell sets:                                           2
       Number of orbital shells:                                               6
       Number of primitive Cartesian functions:                                6
       Number of Cartesian basis functions:                                   15
       Number of spherical basis functions:                                   14
       Norm type:                                                              2

       Normalised Cartesian orbitals:

                        Set   Shell   Orbital            Exponent    Coefficient

                          1       1    2s                0.070000       0.000000
                                                         0.143687       0.040037
                                                         0.313471       0.177689
                                                         0.721783       0.139661
                                                         1.876046      -0.038599

                          1       2    3s                0.070000      -0.142268
                                                         0.143687       0.288819
                                                         0.313471       0.010360
                                                         0.721783       0.175994
                                                         1.876046       0.000000

                          1       3    3px               0.070000       0.000000
                                                         0.143687       0.012825
                                                         0.313471       0.142381
                                                         0.721783       0.396426
                                                         1.876046       0.544234
                          1       3    3py               0.070000       0.000000
                                                         0.143687       0.012825
                                                         0.313471       0.142381
                                                         0.721783       0.396426
                                                         1.876046       0.544234
                          1       3    3pz               0.070000       0.000000
                                                         0.143687       0.012825
                                                         0.313471       0.142381
                                                         0.721783       0.396426
                                                         1.876046       0.544234

                          1       4    4px               0.070000       0.076505
                                                         0.143687      -0.086104
                                                         0.313471       0.010230
                                                         0.721783       0.129894
                                                         1.876046       0.000000
                          1       4    4py               0.070000       0.076505
                                                         0.143687      -0.086104
                                                         0.313471       0.010230
                                                         0.721783       0.129894
                                                         1.876046       0.000000
                          1       4    4pz               0.070000       0.076505
                                                         0.143687      -0.086104
                                                         0.313471       0.010230
                                                         0.721783       0.129894
                                                         1.876046       0.000000

                          1       5    4dx2              0.070000       0.004316
                                                         0.143687       0.012639
                                                         0.313471       0.125057
                                                         0.721783       0.080411
                                                         1.876046       0.000000
                          1       5    4dxy              0.070000       0.007476
                                                         0.143687       0.021892
                                                         0.313471       0.216606
                                                         0.721783       0.139276
                                                         1.876046       0.000000
                          1       5    4dxz              0.070000       0.007476
                                                         0.143687       0.021892
                                                         0.313471       0.216606
                                                         0.721783       0.139276
                                                         1.876046       0.000000
                          1       5    4dy2              0.070000       0.004316
                                                         0.143687       0.012639
                                                         0.313471       0.125057
                                                         0.721783       0.080411
                                                         1.876046       0.000000
                          1       5    4dyz              0.070000       0.007476
                                                         0.143687       0.021892
                                                         0.313471       0.216606
                                                         0.721783       0.139276
                                                         1.876046       0.000000
                          1       5    4dz2              0.070000       0.004316
                                                         0.143687       0.012639
                                                         0.313471       0.125057
                                                         0.721783       0.080411
                                                         1.876046       0.000000

                          2       1    1s                2.093200       0.161650

     AE Potential information for                                            ALL

       Description:                                       All-electron potential
                                          Krack, Parrinello, PCCP 2, 2105 (2000)

       Gaussian exponent of the core charge distribution:               4.109048
       Electronic configuration (s p d ...):                           4   2   0

  3. Atomic kind: H                                     Number of atoms:       4

     Orbital Basis Set                                         aug-SZV-MOLOPT-ae

       Number of orbital shell sets:                                           1
       Number of orbital shells:                                               4
       Number of primitive Cartesian functions:                                7
       Number of Cartesian basis functions:                                    6
       Number of spherical basis functions:                                    6
       Norm type:                                                              2

       Normalised Cartesian orbitals:

                        Set   Shell   Orbital            Exponent    Coefficient

                          1       1    1s                0.065428       0.000000
                                                         0.100112       0.016532
                                                         0.243077       0.102760
                                                         0.625955       0.185857
                                                         1.822143       0.188385
                                                         6.513144       0.143430
                                                        35.523221       0.095030

                          1       2    2s                0.065428       0.083549
                                                         0.100112       0.009605
                                                         0.243077       0.002524
                                                         0.625955       0.013457
                                                         1.822143       0.000000
                                                         6.513144       0.000000
                                                        35.523221       0.000000

                          1       3    3s                0.065428       0.037407
                                                         0.100112      -0.169070
                                                         0.243077      -0.018899
                                                         0.625955       0.012806
                                                         1.822143       0.000000
                                                         6.513144       0.000000
                                                        35.523221       0.000000

                          1       4    2px               0.065428       0.059908
                                                         0.100112      -0.023770
                                                         0.243077       0.000032
                                                         0.625955       0.017779
                                                         1.822143       0.000000
                                                         6.513144       0.000000
                                                        35.523221       0.000000
                          1       4    2py               0.065428       0.059908
                                                         0.100112      -0.023770
                                                         0.243077       0.000032
                                                         0.625955       0.017779
                                                         1.822143       0.000000
                                                         6.513144       0.000000
                                                        35.523221       0.000000
                          1       4    2pz               0.065428       0.059908
                                                         0.100112      -0.023770
                                                         0.243077       0.000032
                                                         0.625955       0.017779
                                                         1.822143       0.000000
                                                         6.513144       0.000000
                                                        35.523221       0.000000

     RI Auxiliary Basis Set             RI_aug-SZV-MOLOPT-ae_N_RI_006_s_p_d_f_g_

       Number of orbital shell sets:                                           4
       Number of orbital shells:                                               4
       Number of primitive Cartesian functions:                                4
       Number of Cartesian basis functions:                                    6
       Number of spherical basis functions:                                    6
       Norm type:                                                              2

       Normalised Cartesian orbitals:

                        Set   Shell   Orbital            Exponent    Coefficient

                          1       1    4px               0.374198       0.417174
                          1       1    4py               0.374198       0.417174
                          1       1    4pz               0.374198       0.417174

                          2       1    1s                0.432727       0.380251

                          3       1    2s                1.080245       0.755182

                          4       1    3s                4.115952       2.059505

       Atomic covalent radius [Angstrom]:                                  0.320

       Atomic van der Waals radius [Angstrom]:                             1.090

     The atoms of this atomic kind are PAW atoms (GAPW):
       Hard Gaussian function radius:                                      1.200
       Rho0 radius:                                                        1.200
       Maximum GTO radius used for PAW projector construction:            24.566

     GAPW Soft Basis Set                                  aug-SZV-MOLOPT-ae_soft

       Number of orbital shell sets:                                           1
       Number of orbital shells:                                               4
       Number of primitive Cartesian functions:                                6
       Number of Cartesian basis functions:                                    6
       Number of spherical basis functions:                                    6
       Norm type:                                                              2

       Normalised Cartesian orbitals:

                        Set   Shell   Orbital            Exponent    Coefficient

                          1       1    1s                0.065428       0.000000
                                                         0.100112       0.016532
                                                         0.243077       0.102760
                                                         0.625955       0.185857
                                                         1.822143       0.188385
                                                         6.513144       0.000000

                          1       2    2s                0.065428       0.083549
                                                         0.100112       0.009605
                                                         0.243077       0.002524
                                                         0.625955       0.013457
                                                         1.822143       0.000000
                                                         6.513144       0.000000

                          1       3    3s                0.065428       0.037407
                                                         0.100112      -0.169070
                                                         0.243077      -0.018899
                                                         0.625955       0.012806
                                                         1.822143       0.000000
                                                         6.513144       0.000000

                          1       4    2px               0.065428       0.059908
                                                         0.100112      -0.023770
                                                         0.243077       0.000032
                                                         0.625955       0.017779
                                                         1.822143       0.000000
                                                         6.513144       0.000000
                          1       4    2py               0.065428       0.059908
                                                         0.100112      -0.023770
                                                         0.243077       0.000032
                                                         0.625955       0.017779
                                                         1.822143       0.000000
                                                         6.513144       0.000000
                          1       4    2pz               0.065428       0.059908
                                                         0.100112      -0.023770
                                                         0.243077       0.000032
                                                         0.625955       0.017779
                                                         1.822143       0.000000
                                                         6.513144       0.000000

     AE Potential information for                                            ALL

       Description:                                       All-electron potential
                                          Krack, Parrinello, PCCP 2, 2105 (2000)

       Gaussian exponent of the core charge distribution:              12.500000
       Electronic configuration (s p d ...):                           1   0   0


 MOLECULE KIND INFORMATION


 All atoms are their own molecule, skipping detailed information


 TOTAL NUMBERS AND MAXIMUM NUMBERS

  Total number of            - Atomic kinds:                                   3
                             - Atoms:                                         12
                             - Shell sets:                                    20
                             - Shells:                                        64
                             - Primitive Cartesian functions:                134
                             - Cartesian basis functions:                    144
                             - Spherical basis functions:                    136

  Maximum angular momentum of the orbital basis functions:                     2


 MODULE QUICKSTEP: ATOMIC COORDINATES IN ANGSTROM

   Atom Kind Element         X             Y             Z       Z(eff)     Mass
      1    1 F     9     12.414939     15.372025     14.949921   9.0000  18.9984
      2    2 C     6     13.756241     15.180009     14.956592   6.0000  12.0107
      3    2 C     6     16.504491     14.796061     14.973172   6.0000  12.0107
      4    3 H     1     17.585061     14.670960     14.988345   1.0000   1.0079
      5    2 C     6     15.647307     13.765999     14.582012   6.0000  12.0107
      6    3 H     1     16.066030     12.806269     14.281978   1.0000   1.0079
      7    2 C     6     14.262843     13.944508     14.568655   6.0000  12.0107
      8    3 H     1     13.583188     13.150722     14.266184   1.0000   1.0079
      9    2 C     6     14.569839     16.235574     15.354021   6.0000  12.0107
     10    2 C     6     15.942217     16.010409     15.351081   6.0000  12.0107
     11    1 F     9     16.758377     17.022046     15.733816   9.0000  18.9984
     12    3 H     1     14.151812     17.193731     15.653580   1.0000   1.0079



 SCF PARAMETERS         Density guess:                                    ATOMIC
                        --------------------------------------------------------
                        max_scf:                                             500
                        max_scf_history:                                       0
                        max_diis:                                              4
                        --------------------------------------------------------
                        eps_scf:                                        1.00E-06
                        eps_scf_history:                                0.00E+00
                        eps_diis:                                       1.00E-01
                        eps_eigval:                                     1.00E-05
                        --------------------------------------------------------
                        level_shift [a.u.]:                             0.000000
                        added MOs                                       107    0
                        --------------------------------------------------------
                        Mixing method:                            BROYDEN_MIXING
                                                charge density mixing in g-space
                        --------------------------------------------------------
                        No outer SCF

 PW_GRID| Information for grid number                                          1
 PW_GRID| Grid distributed over                                    80 processors
 PW_GRID| Real space group dimensions                                    80    1
 PW_GRID| the grid is blocked:                                                NO
 PW_GRID| Cutoff [a.u.]                                                    250.0
 PW_GRID| spherical cutoff:                                                   NO
 PW_GRID|   Bounds   1           -202     202                Points:         405
 PW_GRID|   Bounds   2           -202     202                Points:         405
 PW_GRID|   Bounds   3           -202     202                Points:         405
 PW_GRID| Volume element (a.u.^3)  0.2743E-02     Volume (a.u.^3)    182205.0337
 PW_GRID| Grid span                                                    FULLSPACE
 PW_GRID|   Distribution                         Average         Max         Min
 PW_GRID|   G-Vectors                           830376.6      830655      830250
 PW_GRID|   G-Rays                                2050.3        2051        2050
 PW_GRID|   Real Space Points                   830376.6      984150      820125

 PW_GRID| Information for grid number                                          2
 PW_GRID| Number of the reference grid                                         1
 PW_GRID| Grid distributed over                                    80 processors
 PW_GRID| Real space group dimensions                                    80    1
 PW_GRID| the grid is blocked:                                                NO
 PW_GRID| Cutoff [a.u.]                                                     83.3
 PW_GRID| spherical cutoff:                                                   NO
 PW_GRID|   Bounds   1           -120     119                Points:         240
 PW_GRID|   Bounds   2           -120     119                Points:         240
 PW_GRID|   Bounds   3           -120     119                Points:         240
 PW_GRID| Volume element (a.u.^3)  0.1318E-01     Volume (a.u.^3)    182205.0337
 PW_GRID| Grid span                                                    FULLSPACE
 PW_GRID|   Distribution                         Average         Max         Min
 PW_GRID|   G-Vectors                           172800.0      173520      172320
 PW_GRID|   G-Rays                                 720.0         723         718
 PW_GRID|   Real Space Points                   172800.0      172800      172800

 PW_GRID| Information for grid number                                          3
 PW_GRID| Number of the reference grid                                         1
 PW_GRID| Grid distributed over                                    80 processors
 PW_GRID| Real space group dimensions                                    80    1
 PW_GRID| the grid is blocked:                                                NO
 PW_GRID| Cutoff [a.u.]                                                     27.8
 PW_GRID| spherical cutoff:                                                   NO
 PW_GRID|   Bounds   1            -67      67                Points:         135
 PW_GRID|   Bounds   2            -67      67                Points:         135
 PW_GRID|   Bounds   3            -67      67                Points:         135
 PW_GRID| Volume element (a.u.^3)  0.7406E-01     Volume (a.u.^3)    182205.0337
 PW_GRID| Grid span                                                    FULLSPACE
 PW_GRID|   Distribution                         Average         Max         Min
 PW_GRID|   G-Vectors                            30754.7       31050       30510
 PW_GRID|   G-Rays                                 227.8         230         226
 PW_GRID|   Real Space Points                    30754.7       36450       18225

 PW_GRID| Information for grid number                                          4
 PW_GRID| Number of the reference grid                                         1
 PW_GRID| Grid distributed over                                    80 processors
 PW_GRID| Real space group dimensions                                    80    1
 PW_GRID| the grid is blocked:                                                NO
 PW_GRID| Cutoff [a.u.]                                                      9.3
 PW_GRID| spherical cutoff:                                                   NO
 PW_GRID|   Bounds   1            -40      39                Points:          80
 PW_GRID|   Bounds   2            -40      39                Points:          80
 PW_GRID|   Bounds   3            -40      39                Points:          80
 PW_GRID| Volume element (a.u.^3)  0.3559         Volume (a.u.^3)    182205.0337
 PW_GRID| Grid span                                                    FULLSPACE
 PW_GRID|   Distribution                         Average         Max         Min
 PW_GRID|   G-Vectors                             6400.0        6640        6240
 PW_GRID|   G-Rays                                  80.0          83          78
 PW_GRID|   Real Space Points                     6400.0        6400        6400

 POISSON| Solver                                                         WAVELET
 POISSON| Wavelet| Scaling function                                           40
 POISSON| Periodicity                                                       NONE

 RS_GRID| Information for grid number                                          1
 RS_GRID|   Bounds   1           -202     202                Points:         405
 RS_GRID|   Bounds   2           -202     202                Points:         405
 RS_GRID|   Bounds   3           -202     202                Points:         405
 RS_GRID| Real space distribution over                                  4 groups
 RS_GRID| Real space distribution along direction                              1
 RS_GRID| Border size                                                         35
 RS_GRID| Real space distribution over                                  4 groups
 RS_GRID| Real space distribution along direction                              2
 RS_GRID| Border size                                                         35
 RS_GRID| Real space distribution over                                  5 groups
 RS_GRID| Real space distribution along direction                              3
 RS_GRID| Border size                                                         35
 RS_GRID|   Distribution                         Average         Max         Min
 RS_GRID|   Planes                                 171.2         172         171
 RS_GRID|   Distribution                         Average         Max         Min
 RS_GRID|   Planes                                 171.2         172         171
 RS_GRID|   Distribution                         Average         Max         Min
 RS_GRID|   Planes                                 151.0         151         151

 RS_GRID| Information for grid number                                          2
 RS_GRID|   Bounds   1           -120     119                Points:         240
 RS_GRID|   Bounds   2           -120     119                Points:         240
 RS_GRID|   Bounds   3           -120     119                Points:         240
 RS_GRID| Real space distribution over                                  4 groups
 RS_GRID| Real space distribution along direction                              1
 RS_GRID| Border size                                                         36
 RS_GRID| Real space distribution over                                  4 groups
 RS_GRID| Real space distribution along direction                              2
 RS_GRID| Border size                                                         36
 RS_GRID| Real space distribution over                                  5 groups
 RS_GRID| Real space distribution along direction                              3
 RS_GRID| Border size                                                         36
 RS_GRID|   Distribution                         Average         Max         Min
 RS_GRID|   Planes                                 132.0         132         132
 RS_GRID|   Distribution                         Average         Max         Min
 RS_GRID|   Planes                                 132.0         132         132
 RS_GRID|   Distribution                         Average         Max         Min
 RS_GRID|   Planes                                 120.0         120         120

 RS_GRID| Information for grid number                                          3
 RS_GRID|   Bounds   1            -67      67                Points:         135
 RS_GRID|   Bounds   2            -67      67                Points:         135
 RS_GRID|   Bounds   3            -67      67                Points:         135
 RS_GRID| Real space fully replicated
 RS_GRID| Group size                                                           1

 RS_GRID| Information for grid number                                          4
 RS_GRID|   Bounds   1            -40      39                Points:          80
 RS_GRID|   Bounds   2            -40      39                Points:          80
 RS_GRID|   Bounds   3            -40      39                Points:          80
[...]
 compute_W_MIC                        1  8.0    0.000    0.000    1.147    1.147
 create_and_init_bs_env_for_gw        1  6.0    0.000    0.000    1.093    1.133
 integrate_four_center_main          92 10.0    0.037    0.115    0.990    1.119
 transfer_rs2pw_30                   92  9.0    0.388    0.427    1.073    1.115
 integrate_four_center_bin        12071 11.0    0.953    1.106    0.953    1.106
 pw_gather_p                        917 11.8    0.945    1.016    0.945    1.016
 calculate_rho_atom                 276  9.0    0.321    1.011    0.321    1.011
 pw_copy                           1375 10.6    0.959    0.999    0.959    0.999
 compute_fm_W_MIC_freq_j             30  9.0    0.000    0.000    0.995    0.995
 mp_sendrecv_dv                   14536 10.0    0.898    0.968    0.898    0.968
 mp_sum_dm                         3402  7.7    0.820    0.934    0.820    0.934
 cp2k_distribution_to_z_slices       92  9.0    0.344    0.392    0.901    0.932
 mp_isend_dv                      20278 12.7    0.348    0.905    0.348    0.905
 mp_sum_dv                         4474  8.6    0.763    0.831    0.763    0.831
 transfer_rs2pw_90                   92  9.0    0.203    0.248    0.720    0.801
 eigensolver_symm                    91  6.0    0.006    0.007    0.711    0.714
 cp_cfm_power                        30 10.0    0.001    0.001    0.702    0.703
 rs_grid_zero                       462 11.2    0.667    0.702    0.667    0.702
 cp_cfm_heevd                        32 10.8    0.000    0.000    0.696    0.698
 cp_cfm_heevd_base                   32 11.8    0.696    0.698    0.696    0.698
 pw_copy_to_array                   917 11.8    0.547    0.665    0.547    0.665
 pw_poisson_set                      93  9.0    0.001    0.002    0.631    0.663
 compute_V_xc                         1  7.0    0.000    0.000    0.635    0.635
 fft_wrap_pw1pw2_90                 184 10.5    0.029    0.030    0.601    0.634
 parallel_gemm_fm                   366  8.2    0.000    0.000    0.565    0.619
 parallel_gemm_fm_cosma             366  9.2    0.565    0.619    0.565    0.619
 transfer_pw2rs_10                   92 12.0    0.148    0.158    0.590    0.615
 powell_optimize                 410208 11.0    0.590    0.605    0.590    0.605
 calc_screening_functions             1 10.0    0.219    0.222    0.555    0.568
 pw_copy_from_array                1006 12.1    0.472    0.562    0.472    0.562
 rs_gather_matrices                  92 10.0    0.001    0.003    0.432    0.516
 G_times_3c                          60  8.0    0.000    0.000    0.513    0.513
 dbt_tas_distribution_new          1504 14.4    0.266    0.276    0.509    0.511
 copy_dbcsr_to_fm                   285  8.2    0.003    0.003    0.491    0.511
 compute_3c_and_contract_W           25  8.0    0.000    0.000    0.503    0.503
 mp_isend_dm3                      3324 11.5    0.188    0.499    0.188    0.499
 dbt_tas_create_split              1348 15.1    0.001    0.001    0.482    0.485
 dbt_tas_create_split_rows_or_c    1348 16.1    0.003    0.003    0.481    0.483
 calculate_dm_sparse                 91  6.0    0.000    0.000    0.304    0.470
 cp_dbcsr_plus_fm_fm_t               91  7.0    0.001    0.001    0.303    0.469
 grid_integrate_task_list            92 10.0    0.068    0.467    0.068    0.467
 cp_fm_diag_elpa                     97  7.1    0.000    0.000    0.463    0.466
 dbcsr_complete_redistribute        619  9.4    0.017    0.022    0.456    0.463
 pw_integral_ab_c1d_c1d_gs           92  9.0    0.405    0.411    0.448    0.463
 dbt_tas_estimate_result_nze        198 12.9    0.009    0.011    0.462    0.462
 cp_fm_diag_elpa_base                97  8.0    0.435    0.448    0.447    0.455
 dbt_tas_dbm                        396 14.4    0.000    0.000    0.440    0.440
 pw_axpy                            915  9.3    0.415    0.438    0.415    0.438
 calc_pair_dist_radii                 1 10.0    0.138    0.157    0.392    0.412
 parallel_gemm_cfm                  281 10.5    0.000    0.000    0.390    0.395
 parallel_gemm_cfm_cosma            281 11.5    0.390    0.395    0.390    0.395
 pw_poisson_rebuild                  92  9.0    0.000    0.000    0.370    0.386
 ps_wavelet_create                    1 10.0    0.000    0.000    0.370    0.386
 RS_z_slice_distribution              1 11.0    0.253    0.284    0.370    0.386
 mp_bcast_dm                       2209  9.0    0.348    0.367    0.348    0.367
 fm_to_local_tensor                 152  8.0    0.001    0.002    0.360    0.362
 dbcsr_multiply_generic              91  8.0    0.003    0.003    0.197    0.360
 reshape_mm_small                   396 14.4    0.026    0.027    0.347    0.350
 G_occ_vir                          121  8.0    0.001    0.003    0.271    0.332
 transfer_rs2pw_10                   92  9.0    0.093    0.098    0.305    0.318
 dbm_multiply                       396 16.4    0.252    0.298    0.252    0.298
 multiply_cannon                     91  9.0    0.005    0.005    0.115    0.279
 multiply_cannon_loop                91 10.0    0.005    0.006    0.102    0.265
 reshape_mm_compatible              396 14.4    0.004    0.004    0.255    0.260
 self_consistency_check              91  5.0    0.000    0.000    0.177    0.257
 cp_sm_mix                           91  6.0    0.000    0.000    0.176    0.257
 mp_max_d                            97  7.0    0.176    0.257    0.176    0.257
 pw_zero                            548 10.3    0.244    0.254    0.244    0.254
 mp_cart_create                    2832 14.5    0.240    0.251    0.242    0.253
 check_sparsity_3c                    1  7.0    0.000    0.000    0.248    0.248
 multiply_cannon_metrocomm3        1820 11.0    0.002    0.003    0.067    0.247
 calculate_rho_atom_coeff            92  6.0    0.026    0.038    0.245    0.245
 change_split                       594 14.9    0.002    0.002    0.234    0.239
 dbcsr_desymmetrize_deep            291  9.3    0.004    0.005    0.216    0.235
 init_scf_run                         1  3.0    0.000    0.000    0.231    0.231
 compute_QP_energies                  1  7.0    0.000    0.000    0.223    0.224
 scf_env_initial_rho_setup            1  4.0    0.000    0.000    0.222    0.222
 compute_cfm_W_ikp_freq_j            30 10.0    0.000    0.001    0.219    0.219
 qs_energies_init_hamiltonians        1  3.0    0.000    0.000    0.216    0.216
 build_core_hamiltonian_matrix        1  4.0    0.000    0.000    0.213    0.213
 overlap_condnum                      1  5.0    0.000    0.000    0.212    0.213
 dbt_create_matrix                  152  9.0    0.001    0.001    0.208    0.210
 mp_comm_split_direct              1350 17.1    0.204    0.205    0.204    0.206
 abc_contract_xsmm                39100 10.6    0.081    0.203    0.081    0.203
 copy_fm_to_dbcsr                   334  8.5    0.001    0.001    0.193    0.199
 update_ks_atom                      92  8.0    0.020    0.038    0.167    0.197
 arnoldi_conjugate_gradient           5  6.0    0.004    0.005    0.196    0.196
 mp_alltoall_i11v                  2148 10.4    0.193    0.193    0.193    0.193
 to_ikp_and_mo                       62  8.0    0.000    0.000    0.182    0.182
 fm_Gamma_ao_to_cfm_ikp_mo           62  9.0    0.000    0.000    0.179    0.181
 dbt_distribution_new_expert        316 10.5    0.002    0.002    0.179    0.179
 qs_init_subsys                       1  2.0    0.001    0.001    0.174    0.175
 mp_comm_dup                       1154 17.5    0.168    0.172    0.169    0.173
 qs_env_setup                         1  3.0    0.000    0.000    0.171    0.172
 qs_env_rebuild_pw_env                2  3.5    0.000    0.000    0.171    0.171
 pw_env_rebuild                       1  5.0    0.000    0.000    0.171    0.171
 dbt_tas_mm_2                       146 15.2    0.000    0.000    0.169    0.170
 fft_wrap_pw1pw2_30                 184 10.5    0.005    0.006    0.163    0.169
 mp_sum_l                          3064 12.0    0.149    0.164    0.149    0.164
 pw_grid_setup                        4  6.0    0.000    0.000    0.160    0.160
 pw_grid_setup_internal               4  7.0    0.002    0.005    0.160    0.160
 Vh_1c_gg_integrals                  92  8.0    0.012    0.141    0.141    0.158
 convert_to_new_pgrid              1188 14.4    0.055    0.061    0.115    0.146
 mp_alltoall_i22                    910 10.3    0.108    0.135    0.108    0.135
 mp_max_i                           975  6.5    0.102    0.134    0.102    0.134
 check_for_restart_files              1  7.0    0.101    0.132    0.101    0.132
 multiply_cannon_metrocomm1        1820 11.0    0.001    0.001    0.016    0.122
 dbcsr_sym_matrix_vector_mult      1375  7.0    0.010    0.011    0.105    0.119
 dbm_redistribute                   444 13.7    0.081    0.116    0.081    0.116
 pw_grid_sort                         4  8.0    0.082    0.085    0.111    0.116
 dbt_copy                           420 10.0    0.002    0.002    0.084    0.114
 setup_time_and_frequency_minim       1  7.0    0.000    0.000    0.101    0.112
 mp_isendrecv_dv                  29072 12.0    0.043    0.112    0.043    0.112
 scale_and_distribute               184 10.0    0.079    0.106    0.079    0.106
 dbt_reshape                        256 10.9    0.033    0.034    0.075    0.105
 dbt_tas_replicate                  396 14.4    0.016    0.018    0.091    0.100
 fill_fm_Sigma_c_Gamma_time           1  8.0    0.000    0.000    0.094    0.094
 dbcsr_add_d                       3037  8.2    0.001    0.002    0.022    0.094
 dbcsr_add_anytype                 3037  9.2    0.003    0.011    0.021    0.092
 multiply_cannon_metrocomm4        1729 11.0    0.003    0.003    0.008    0.089
 calculate_rho0_atom                276  9.0    0.087    0.089    0.087    0.089
 get_Sigma_x                          1  7.0    0.000    0.000    0.086    0.086
 compute_Sigma_x                      1  8.0    0.000    0.000    0.086    0.086
 dbcsr_finalize                    6410 11.2    0.010    0.022    0.043    0.084
 dbt_tas_reshape                    521 14.5    0.003    0.004    0.077    0.082
 fft_wrap_pw1pw2_10                 184 10.5    0.001    0.002    0.075    0.080
 mp_alltoall_i                     1672 14.3    0.073    0.078    0.073    0.078
 create_qs_kind_set                   1  2.0    0.000    0.000    0.077    0.077
 read_qs_kind                         3  3.0    0.029    0.038    0.077    0.077
 pw_scale                           365  9.5    0.050    0.077    0.050    0.077
 hybrid_alltoall_any                473 10.9    0.002    0.002    0.074    0.076
 multiply_fm_W_MIC_time_with_Mi       2  9.0    0.000    0.000    0.075    0.075
 compute_fm_chi_Gamma_freq           30 10.0    0.000    0.000    0.072    0.074
 mp_cart_sub                        586 10.3    0.073    0.073    0.073    0.073
 dbt_tas_mm_1N                      104 15.5    0.000    0.000    0.048    0.071
 dbt_create_new                     158 10.0    0.001    0.001    0.067    0.068
 cp_cfm_geeig                         2  7.0    0.000    0.000    0.066    0.066
 make_m2s                           182  9.0    0.003    0.003    0.061    0.063
 mp_rank_compare                   1923 13.0    0.056    0.061    0.056    0.061
 mp_waitall_2                      2442 16.0    0.032    0.061    0.032    0.061
 dbt_tas_mm_3N                       48 15.5    0.000    0.000    0.054    0.059
 integrate_four_center_load          92 10.0    0.000    0.000    0.051    0.058
 hfx_load_balance                     1 11.0    0.000    0.000    0.051    0.057
 cp_cfm_cholesky_decompose           35 10.7    0.053    0.055    0.053    0.055
 dbt_tas_communicate_buffer         917 16.5    0.006    0.007    0.030    0.054
 mp_irecv_dm3                      3324 11.5    0.017    0.053    0.017    0.053
 dbt_pgrid_create_expert            320 11.5    0.000    0.000    0.051    0.053
 vxc_of_r_new                       364  9.0    0.001    0.008    0.004    0.053
 dbt_communicate_buffer             256 11.9    0.001    0.001    0.023    0.052
 dbt_tas_merge                      146 14.2    0.009    0.010    0.027    0.052
 parser_read_line                 12774  4.0    0.002    0.002    0.048    0.049
 integrate_four_center_dist_KS       92 10.0    0.007    0.008    0.048    0.049
 dbt_tas_mm_3T                       98 15.5    0.000    0.000    0.040    0.049
 dos_pdos_ldos                        1  5.0    0.000    0.000    0.039    0.049
 parser_read_line_low                22  5.0    0.001    0.012    0.046    0.047
 broadcast_input_information         22  6.0    0.004    0.004    0.045    0.046
 mp_irecv_dv                      19738 12.7    0.014    0.046    0.014    0.046
 cp_fm_symm                          91  7.0    0.042    0.045    0.042    0.045
 scf_post_calculation_gpw             1  3.0    0.000    0.000    0.045    0.045
 write_available_results              1  4.0    0.000    0.000    0.044    0.044
 write_mo_free_results                1  5.0    0.004    0.005    0.044    0.044
 dbcsr_col_vec_to_rep_row          1375  8.0    0.004    0.005    0.035    0.044
 get_l_sq_wghts_cos_tf_t_to_w         1  8.0    0.036    0.042    0.036    0.042
 integrate_four_center_getP          92 10.0    0.007    0.007    0.037    0.040
 get_l_sq_wghts_sin_tf_t_to_w         1  8.0    0.034    0.038    0.034    0.038
 dbcsr_rep_row_to_rep_col_vec      1375  8.0    0.003    0.004    0.021    0.038
 dbcsr_merge_all                   4358 12.3    0.015    0.029    0.021    0.038
 dbcsr_iterator_start             23092  9.4    0.021    0.029    0.024    0.037
 dbt_tas_merge_communicate_buff     146 15.2    0.000    0.000    0.010    0.035
 get_l_sq_wghts_cos_tf_w_to_t         1  8.0    0.030    0.032    0.031    0.035
 mp_bcast_i_src                      88  7.0    0.030    0.034    0.030    0.034
 cp_cfm_cholesky_invert              31 11.0    0.032    0.033    0.032    0.033
 sort_shells                          4  9.0    0.029    0.033    0.029    0.033
 dbt_nd_mp_comm                     152 10.0    0.000    0.000    0.031    0.032
 mp_bcast_dv                       1377  9.0    0.019    0.031    0.019    0.031
 hfx_load_balance_redist              1 12.0    0.003    0.003    0.030    0.030
 cp_fm_power                          3  8.7    0.000    0.000    0.030    0.030
 rs_scatter_matrices                 92  7.0    0.001    0.001    0.028    0.029
 xc_pw_smooth                        91 10.0    0.000    0.000    0.028    0.029
 mixing_init                          1  5.0    0.027    0.029    0.029    0.029
 dbt_tas_reshape_buffer_obtain      521 15.5    0.021    0.022    0.028    0.029
 dbt_tas_mp_comm                    198 12.9    0.001    0.001    0.028    0.029
 dbcsr_work_create                 5195 11.2    0.009    0.019    0.013    0.028
 make_images                        182 10.0    0.005    0.005    0.026    0.027
 offload_free_buffer                100  8.6    0.016    0.027    0.016    0.027
 mp_isendrecv_lv                    158 13.0    0.001    0.026    0.001    0.026
 mp_maxloc_dv                      1621  1.0    0.021    0.025    0.021    0.025
 hfx_load_balance_range               1 12.0    0.000    0.000    0.018    0.024
 dbt_tas_reshape_alltoall           521 15.5    0.000    0.000    0.023    0.024
 mp_sum_i                           556 14.0    0.023    0.024    0.023    0.024
 dbcsr_crop_matrix                  546 10.0    0.002    0.002    0.023    0.023
 delete_unnecessary_files             1  8.0    0.000    0.000    0.000    0.023
 safe_delete                         60  9.0    0.000    0.022    0.000    0.022
 write_mo_set_to_restart             91  5.0    0.001    0.015    0.017    0.022
 hirshfeld_integration                1  6.0    0.001    0.005    0.021    0.021
 dbt_tas_replicate_alltoall         250 15.5    0.000    0.000    0.018    0.021
 dbt_tas_replicate_communicate_     250 15.5    0.001    0.001    0.012    0.021
 dbcsr_create_new                 10591  9.4    0.014    0.016    0.019    0.021
 global_matrix_to_local_matrix      152  9.0    0.001    0.001    0.016    0.020
 dbcsr_work_destroy_all            5195 12.1    0.006    0.014    0.009    0.020
 dbcsr_copy                        6441  7.8    0.011    0.012    0.018    0.020
 mp_bcast_b_src                     188  7.6    0.014    0.019    0.014    0.019
 dbcsr_iterator_stop              23092  9.4    0.011    0.016    0.014    0.019
 pw_grid_remap                        4  8.0    0.003    0.003    0.014    0.018
 dbcsr_copy_submatrix               546 11.0    0.002    0.002    0.017    0.018
 calculate_hirshfeld_normalizat       1  6.0    0.001    0.005    0.017    0.018
 cp_fm_redistribute_end              97  8.1    0.009    0.017    0.009    0.017
 dbt_tas_reshape_buffer_fill        521 15.5    0.012    0.016    0.012    0.016
 local_dbt_to_global_mat             91  8.0    0.000    0.000    0.016    0.016
 write_mo_set_low                     5  6.0    0.000    0.000    0.016    0.016
 mp_sum_im3                           6  9.5    0.012    0.016    0.012    0.016
 create_and_init_bs_env               1  5.0    0.000    0.000    0.016    0.016
 make_images_sizes                  182 11.0    0.000    0.000    0.013    0.015
 dbm_reserve_blocks                2488 15.8    0.013    0.015    0.013    0.015
 mp_alltoall_i44                    182 12.0    0.013    0.015    0.013    0.015
 dbt_tas_copy                       405 13.7    0.008    0.009    0.014    0.015
 dbt_tas_reserve_blocks_index      2092 14.9    0.002    0.002    0.013    0.015
 mp_bcast_am_src                     22  7.0    0.011    0.014    0.011    0.014
 RI_2c_integral_mat                   4  9.8    0.000    0.000    0.014    0.014
 pw_grid_assign                       4  8.0    0.013    0.014    0.014    0.014
 mp_bcast_av                        811  1.0    0.005    0.007    0.012    0.014
 dbcsr_data_new                   50790 11.6    0.009    0.014    0.009    0.014
 external_control                    91  5.0    0.000    0.010    0.013    0.013
 dbcsr_data_release               79390 11.3    0.008    0.013    0.008    0.013
 mp_comm_free                      5975 13.4    0.012    0.013    0.012    0.013
 restraint_control                    1  2.0    0.000    0.000    0.013    0.013
 write_dos_pdos                       2  6.0    0.000    0.013    0.000    0.013
 dbt_tas_reshape_communicate_bu     521 15.5    0.001    0.002    0.010    0.013
 local_matrix_to_global_matrix       91  9.0    0.000    0.000    0.011    0.013
 dbcsr_filter_anytype               736  9.8    0.002    0.002    0.009    0.012
 cp_fm_uplo_to_full                 100  9.1    0.010    0.012    0.010    0.012
 compute_proj_mo_on_kind              1  6.0    0.000    0.000    0.011    0.011
 diagonalize_ks_matrix                1  6.0    0.000    0.000    0.011    0.011
 cp_fm_geeig_canon                    1  7.0    0.000    0.000    0.011    0.011
 mp_bcast_i                        1936 12.5    0.009    0.011    0.009    0.011
 cp_fm_redistribute_start            97  8.1    0.002    0.002    0.007    0.010
 -------------------------------------------------------------------------------

 The number of warnings for this run is : 1
 
 -------------------------------------------------------------------------------
  **** **** ******  **  PROGRAM ENDED AT                 2025-05-30 01:21:44.072
 ***** ** ***  *** **   PROGRAM RAN ON                                  n2cn0328
 **    ****   ******    PROGRAM RAN BY                                  metdyn02
 ***** **    ** ** **   PROGRAM PROCESS ID                               1550289
  **** **  *******  **  PROGRAM STOPPED IN /scratch/hpc-prf-metdyn/metdyn02_Remi
                                           /10_MOL/05_MOL_low_scal/05_MOL/aUKBqs
                                           EOTmq69kFe5R_nOg/5k_set_final_qzvp/PU
                                           GDAX/SZV/1e-3/7.0
