 DBCSR| CPU Multiplication driver                                           BLAS (U)
 DBCSR| Multrec recursion limit                                              512 (U)
 DBCSR| Multiplication stack size                                           1000 (D)
 DBCSR| Maximum elements for images                                    UNLIMITED (U)
 DBCSR| Multiplicative factor virtual images                                   1 (U)
 DBCSR| Use multiplication densification                                       T (D)
 DBCSR| Multiplication size stacks                                             3 (U)
 DBCSR| Use memory pool for CPU allocation                                     F (U)
 DBCSR| Number of 3D layers                                               SINGLE (U)
 DBCSR| Use MPI memory allocation                                              F (U)
 DBCSR| Use RMA algorithm                                                      F (U)
 DBCSR| Use Communication thread                                               T (U)
 DBCSR| Communication thread load                                             75 (D)
 DBCSR| MPI: My process id                                                     0
 DBCSR| MPI: Number of processes                                             192
 DBCSR| OMP: Current number of threads                                         4
 DBCSR| OMP: Max number of threads                                             4
 DBCSR| Split modifier for TAS multiplication algorithm                  1.0E+00 (U)


  **** **** ******  **  PROGRAM STARTED AT               2025-04-20 13:48:42.158
 ***** ** ***  *** **   PROGRAM STARTED ON                          i05r11c03s07
 **    ****   ******    PROGRAM STARTED BY                               di38fab
 ***** **    ** ** **   PROGRAM PROCESS ID                               3589061
  **** **  *******  **  PROGRAM STARTED IN /hppfs/scratch/04/di38fab/05_MOL/W4-1
                                           1+ALK/co/SZV/TDDFT/1e-4

 CP2K| version string:                 CP2K version 2025.1 (Development Version)
 CP2K| source code revision number:                             unknown revision
 CP2K| cp2kflags: omp libint fftw3 libxc parallel scalapack max_contr=4         
 CP2K| is freely available from                            https://www.cp2k.org/
 CP2K| Program compiled at                         Thu Apr 10 16:20:23 CEST 2025
 CP2K| Program compiled on                                               login01
 CP2K| Program compiled for                                        Supermuc-foss
 CP2K| Data directory path                  /hppfs/work/pn36zo/di38fab/cp2k/data
 CP2K| Input file name                                                    GW.inp

 GLOBAL| Force Environment number                                              1
 GLOBAL| Basis set file name            /hppfs/scratch/04/di38fab/04_TMD/BASIS_A
 GLOBAL| Potential file name            /hppfs/work/pn36zo/di38fab/cp2k/data/ALL
 GLOBAL| MM Potential file name                                     MM_POTENTIAL
 GLOBAL| Coordinate file name                                      __STD_INPUT__
 GLOBAL| Method name                                                        CP2K
 GLOBAL| Project name                                                       MoS2
 GLOBAL| Run type                                                         ENERGY
 GLOBAL| FFT library                                                       FFTW3
 GLOBAL| Diagonalization library                                       ScaLAPACK
 GLOBAL| DGEMM library                                                      BLAS
 GLOBAL| Orthonormality check for eigenvectors                          DISABLED
 GLOBAL| Matrix multiplication library                                 ScaLAPACK
 GLOBAL| All-to-all communication in single precision                          F
 GLOBAL| FFTs using library dependent lengths                                  F
 GLOBAL| Grid backend                                                       AUTO
 GLOBAL| Global print level                                               MEDIUM
 GLOBAL| MPI I/O enabled                                                       T
 GLOBAL| Total number of message passing processes                           192
 GLOBAL| Number of threads for this process                                    4
 GLOBAL| This output is from process                                           0
 GLOBAL| OpenMP stack size per thread (OMP_STACKSIZE)                    default
 GLOBAL| CPU model name             Intel(R) Xeon(R) Platinum 8174 CPU @ 3.10GHz

 MEMORY| system memory details [Kb]
 MEMORY|                        rank 0           min           max       average
 MEMORY| MemTotal             98436660      98436648      98436708      98436669
 MEMORY| MemFree              83898756      83644628      84110128      83951372
 MEMORY| Buffers                     0             0             0             0
 MEMORY| Cached                2400580       2374980       2401128       2390088
 MEMORY| Slab                  1247560       1229544       1270304       1249685
 MEMORY| SReclaimable           269736        268392        284828        274444
 MEMORY| MemLikelyFree        86569072      86321772      86784340      86615905


 *** Fundamental physical constants (SI units) ***

 *** Literature: B. J. Mohr and B. N. Taylor,
 ***             CODATA recommended values of the fundamental physical
 ***             constants: 2006, Web Version 5.1
 ***             http://physics.nist.gov/constants

 Speed of light in vacuum [m/s]                             2.99792458000000E+08
 Magnetic constant or permeability of vacuum [N/A**2]       1.25663706143592E-06
 Electric constant or permittivity of vacuum [F/m]          8.85418781762039E-12
 Planck constant (h) [J*s]                                  6.62606896000000E-34
 Planck constant (h-bar) [J*s]                              1.05457162825177E-34
 Elementary charge [C]                                      1.60217648700000E-19
 Electron mass [kg]                                         9.10938215000000E-31
 Electron g factor [ ]                                     -2.00231930436220E+00
 Proton mass [kg]                                           1.67262163700000E-27
 Fine-structure constant                                    7.29735253760000E-03
 Rydberg constant [1/m]                                     1.09737315685270E+07
 Avogadro constant [1/mol]                                  6.02214179000000E+23
 Boltzmann constant [J/K]                                   1.38065040000000E-23
 Atomic mass unit [kg]                                      1.66053878200000E-27
 Bohr radius [m]                                            5.29177208590000E-11

 *** Conversion factors ***

 [u] -> [a.u.]                                              1.82288848426455E+03
 [Angstrom] -> [Bohr] = [a.u.]                              1.88972613288564E+00
 [a.u.] = [Bohr] -> [Angstrom]                              5.29177208590000E-01
 [a.u.] -> [s]                                              2.41888432650478E-17
 [a.u.] -> [fs]                                             2.41888432650478E-02
 [a.u.] -> [J]                                              4.35974393937059E-18
 [a.u.] -> [N]                                              8.23872205491840E-08
 [a.u.] -> [K]                                              3.15774647902944E+05
 [a.u.] -> [kJ/mol]                                         2.62549961709828E+03
 [a.u.] -> [kcal/mol]                                       6.27509468713739E+02
 [a.u.] -> [Pa]                                             2.94210107994716E+13
 [a.u.] -> [bar]                                            2.94210107994716E+08
 [a.u.] -> [atm]                                            2.90362800883016E+08
 [a.u.] -> [eV]                                             2.72113838565563E+01
 [a.u.] -> [Hz]                                             6.57968392072181E+15
 [a.u.] -> [1/cm] (wave numbers)                            2.19474631370540E+05
 [a.u./Bohr**2] -> [1/cm]                                   5.14048714338585E+03
 

 CELL_TOP| Volume [angstrom^3]:                                     27000.000000
 CELL_TOP| Vector a [angstrom    30.000     0.000     0.000   |a| =    30.000000
 CELL_TOP| Vector b [angstrom     0.000    30.000     0.000   |b| =    30.000000
 CELL_TOP| Vector c [angstrom     0.000     0.000    30.000   |c| =    30.000000
 CELL_TOP| Angle (b,c), alpha [degree]:                                90.000000
 CELL_TOP| Angle (a,c), beta  [degree]:                                90.000000
 CELL_TOP| Angle (a,b), gamma [degree]:                                90.000000
 CELL_TOP| Numerically orthorhombic:                                         YES
 CELL_TOP| Periodicity                                                      NONE

 GENERATE|  Preliminary Number of Bonds generated:                             0
 GENERATE|  Achieved consistency in connectivity generation.

 CELL| Volume [angstrom^3]:                                         27000.000000
 CELL| Vector a [angstrom]:      30.000     0.000     0.000   |a| =    30.000000
 CELL| Vector b [angstrom]:       0.000    30.000     0.000   |b| =    30.000000
 CELL| Vector c [angstrom]:       0.000     0.000    30.000   |c| =    30.000000
 CELL| Angle (b,c), alpha [degree]:                                    90.000000
 CELL| Angle (a,c), beta  [degree]:                                    90.000000
 CELL| Angle (a,b), gamma [degree]:                                    90.000000
 CELL| Numerically orthorhombic:                                             YES
 CELL| Periodicity                                                          NONE

 CELL_REF| Volume [angstrom^3]:                                     27000.000000
 CELL_REF| Vector a [angstrom    30.000     0.000     0.000   |a| =    30.000000
 CELL_REF| Vector b [angstrom     0.000    30.000     0.000   |b| =    30.000000
 CELL_REF| Vector c [angstrom     0.000     0.000    30.000   |c| =    30.000000
 CELL_REF| Angle (b,c), alpha [degree]:                                90.000000
 CELL_REF| Angle (a,c), beta  [degree]:                                90.000000
 CELL_REF| Angle (a,b), gamma [degree]:                                90.000000
 CELL_REF| Numerically orthorhombic:                                         YES
 CELL_REF| Periodicity                                                      NONE

 *******************************************************************************
 *******************************************************************************
 **                                                                           **
 **     #####                         ##              ##                      **
 **    ##   ##            ##          ##              ##                      **
 **   ##     ##                       ##            ######                    **
 **   ##     ##  ##   ##  ##   #####  ##  ##   ####   ##    #####    #####    **
 **   ##     ##  ##   ##  ##  ##      ## ##   ##      ##   ##   ##  ##   ##   **
 **   ##  ## ##  ##   ##  ##  ##      ####     ###    ##   ######   ######    **
 **    ##  ###   ##   ##  ##  ##      ## ##      ##   ##   ##       ##        **
 **     #######   #####   ##   #####  ##  ##  ####    ##    #####   ##        **
 **           ##                                                    ##        **
 **                                                                           **
 **                                                ... make the atoms dance   **
 **                                                                           **
 **            Copyright (C) by CP2K developers group (2000-2025)             **
 **                      J. Chem. Phys. 152, 194103 (2020)                    **
 **                                                                           **
 *******************************************************************************

 DFT| Spin restricted Kohn-Sham (RKS) calculation                            RKS
 DFT| Multiplicity                                                             1
 DFT| Number of spin states                                                    1
 DFT| Charge                                                                   0
 DFT| Self-interaction correction (SIC)                                       NO
 DFT| Cutoffs: density                                              1.000000E-10
 DFT|          gradient                                             1.000000E-10
 DFT|          tau                                                  1.000000E-10
 DFT|          cutoff_smoothing_range                               0.000000E+00
 DFT| XC density smoothing                                                  NONE
 DFT| XC derivatives                                                          PW

 FUNCTIONAL| PBE:
 FUNCTIONAL| J.P.Perdew, K.Burke, M.Ernzerhof, Phys. Rev. Letter, vol. 77, n 18,
 FUNCTIONAL|  pp. 3865-3868, (1996)sx=0.750sc=1.000{spin unpolarized}           


 QS| Method:                                                                GAPW
 QS| Density plane wave grid type                        NON-SPHERICAL FULLSPACE
 QS| Number of grid levels:                                                    4
 QS| Density cutoff [a.u.]:                                                250.0
 QS| Multi grid cutoff [a.u.]: 1) grid level                               250.0
 QS|                           2) grid level                                83.3
 QS|                           3) grid level                                27.8
 QS|                           4) grid level                                 9.3
 QS| Grid level progression factor:                                          3.0
 QS| Relative density cutoff [a.u.]:                                        50.0
 QS| Interaction thresholds: eps_pgf_orb:                                1.0E-12
 QS|                         eps_filter_matrix:                          0.0E+00
 QS|                         eps_core_charge:                            1.0E-14
 QS|                         eps_rho_gspace:                             1.0E-12
 QS|                         eps_rho_rspace:                             1.0E-12
 QS|                         eps_gvg_rspace:                             1.0E-06
 QS|                         eps_ppl:                                    1.0E-02
 QS|                         eps_ppnl:                                   1.0E-08
 QS| GAPW|      One center basis from orbital basis primitives
 QS| GAPW|                   eps_fit:                                    1.0E-04
 QS| GAPW|                   eps_iso:                                    1.0E-12
 QS| GAPW|                   eps_svd:                                    1.0E-08
 QS| GAPW|                   eps_cpc:                                    1.0E-12
 QS| GAPW|   atom-r-grid: quadrature:                                     GC_LOG
 QS| GAPW|      atom-s-grid:  max l :                                          4
 QS| GAPW|      max_l_rho0 :                                                   2


 ATOMIC KIND INFORMATION

  1. Atomic kind: C                                     Number of atoms:       1

     Orbital Basis Set                                         aug-SZV-MOLOPT-ae

       Number of orbital shell sets:                                           2
       Number of orbital shells:                                               6
       Number of primitive Cartesian functions:                               13
       Number of Cartesian basis functions:                                   15
       Number of spherical basis functions:                                   14
       Norm type:                                                              2

       Normalised Cartesian orbitals:

                        Set   Shell   Orbital            Exponent    Coefficient

                          1       1    2s                0.070000       0.000000
                                                         0.143687       0.040037
                                                         0.313471       0.177689
                                                         0.721783       0.139661
                                                         1.876046      -0.038599
                                                         6.036200      -0.128975
                                                        30.497239      -0.122578

                          1       2    3s                0.070000      -0.142268
                                                         0.143687       0.288819
                                                         0.313471       0.010360
                                                         0.721783       0.175994
                                                         1.876046       0.000000
                                                         6.036200       0.000000
                                                        30.497239       0.000000

                          1       3    3px               0.070000       0.000000
                                                         0.143687       0.012825
                                                         0.313471       0.142381
                                                         0.721783       0.396426
                                                         1.876046       0.544234
                                                         6.036200       0.508157
                                                        30.497239       0.384077
                          1       3    3py               0.070000       0.000000
                                                         0.143687       0.012825
                                                         0.313471       0.142381
                                                         0.721783       0.396426
                                                         1.876046       0.544234
                                                         6.036200       0.508157
                                                        30.497239       0.384077
                          1       3    3pz               0.070000       0.000000
                                                         0.143687       0.012825
                                                         0.313471       0.142381
                                                         0.721783       0.396426
                                                         1.876046       0.544234
                                                         6.036200       0.508157
                                                        30.497239       0.384077

                          1       4    4px               0.070000       0.076505
                                                         0.143687      -0.086104
                                                         0.313471       0.010230
                                                         0.721783       0.129894
                                                         1.876046       0.000000
                                                         6.036200       0.000000
                                                        30.497239       0.000000
                          1       4    4py               0.070000       0.076505
                                                         0.143687      -0.086104
                                                         0.313471       0.010230
                                                         0.721783       0.129894
                                                         1.876046       0.000000
                                                         6.036200       0.000000
                                                        30.497239       0.000000
                          1       4    4pz               0.070000       0.076505
                                                         0.143687      -0.086104
                                                         0.313471       0.010230
                                                         0.721783       0.129894
                                                         1.876046       0.000000
                                                         6.036200       0.000000
                                                        30.497239       0.000000

                          1       5    4dx2              0.070000       0.004316
                                                         0.143687       0.012639
                                                         0.313471       0.125057
                                                         0.721783       0.080411
                                                         1.876046       0.000000
                                                         6.036200       0.000000
                                                        30.497239       0.000000
                          1       5    4dxy              0.070000       0.007476
                                                         0.143687       0.021892
                                                         0.313471       0.216606
                                                         0.721783       0.139276
                                                         1.876046       0.000000
                                                         6.036200       0.000000
                                                        30.497239       0.000000
                          1       5    4dxz              0.070000       0.007476
                                                         0.143687       0.021892
                                                         0.313471       0.216606
                                                         0.721783       0.139276
                                                         1.876046       0.000000
                                                         6.036200       0.000000
                                                        30.497239       0.000000
                          1       5    4dy2              0.070000       0.004316
                                                         0.143687       0.012639
                                                         0.313471       0.125057
                                                         0.721783       0.080411
                                                         1.876046       0.000000
                                                         6.036200       0.000000
                                                        30.497239       0.000000
                          1       5    4dyz              0.070000       0.007476
                                                         0.143687       0.021892
                                                         0.313471       0.216606
                                                         0.721783       0.139276
                                                         1.876046       0.000000
                                                         6.036200       0.000000
                                                        30.497239       0.000000
                          1       5    4dz2              0.070000       0.004316
                                                         0.143687       0.012639
                                                         0.313471       0.125057
                                                         0.721783       0.080411
                                                         1.876046       0.000000
                                                         6.036200       0.000000
                                                        30.497239       0.000000

                          2       1    1s              742.737049       0.929185
                                                       136.180025       1.402437
                                                        38.098264       1.841991
                                                        13.087782       1.817278
                                                         5.082369       1.004768
                                                         2.093200       0.161650

     RI Auxiliary Basis Set             RI_aug-SZV-MOLOPT-ae_N_RI_048_s_p_d_f_g_

       Number of orbital shell sets:                                          14
       Number of orbital shells:                                              14
       Number of primitive Cartesian functions:                               14
       Number of Cartesian basis functions:                                   62
       Number of spherical basis functions:                                   48
       Norm type:                                                              2

       Normalised Cartesian orbitals:

                        Set   Shell   Orbital            Exponent    Coefficient

                          1       1    1s                0.182132       0.198701

                          2       1    7px               0.213594       0.206979
                          2       1    7py               0.213594       0.206979
                          2       1    7pz               0.213594       0.206979

                          3       1   10dx2              0.381125       0.304282
                          3       1   10dxy              0.381125       0.527033
                          3       1   10dxz              0.381125       0.527033
                          3       1   10dy2              0.381125       0.304282
                          3       1   10dyz              0.381125       0.527033
                          3       1   10dz2              0.381125       0.304282

                          4       1    2s                0.433905       0.381027

                          5       1   12fx3              0.524446       0.344573
                          5       1   12fx2y             0.524446       0.770488
                          5       1   12fx2z             0.524446       0.770488
                          5       1   12fxy2             0.524446       0.770488
                          5       1   12fxyz             0.524446       1.334524
                          5       1   12fxz2             0.524446       0.770488
                          5       1   12fy3              0.524446       0.344573
                          5       1   12fy2z             0.524446       0.770488
                          5       1   12fyz2             0.524446       0.770488
                          5       1   12fz3              0.524446       0.344573

                          6       1    8px               0.915857       1.277099
                          6       1    8py               0.915857       1.277099
                          6       1    8pz               0.915857       1.277099

                          7       1   14gx4              1.217666       1.912659
                          7       1   14gx3y             1.217666       5.060419
                          7       1   14gx3z             1.217666       5.060419
                          7       1   14gx2y2            1.217666       6.532973
                          7       1   14gx2yz            1.217666      11.315442
                          7       1   14gx2z2            1.217666       6.532973
                          7       1   14gxy3             1.217666       5.060419
                          7       1   14gxy2z            1.217666      11.315442
                          7       1   14gxyz2            1.217666      11.315442
                          7       1   14gxz3             1.217666       5.060419
                          7       1   14gy4              1.217666       1.912659
                          7       1   14gy3z             1.217666       5.060419
                          7       1   14gy2z2            1.217666       6.532973
                          7       1   14gyz3             1.217666       5.060419
                          7       1   14gz4              1.217666       1.912659

                          8       1   11dx2              1.581488       3.670921
                          8       1   11dxy              1.581488       6.358221
                          8       1   11dxz              1.581488       6.358221
                          8       1   11dy2              1.581488       3.670921
                          8       1   11dyz              1.581488       6.358221
                          8       1   11dz2              1.581488       3.670921

                          9       1    3s                1.620693       1.023730

                         10       1   13fx3              2.677157      13.496481
                         10       1   13fx2y             2.677157      30.179050
                         10       1   13fx2z             2.677157      30.179050
                         10       1   13fxy2             2.677157      30.179050
                         10       1   13fxyz             2.677157      52.271648
                         10       1   13fxz2             2.677157      30.179050
                         10       1   13fy3              2.677157      13.496481
                         10       1   13fy2z             2.677157      30.179050
                         10       1   13fyz2             2.677157      30.179050
                         10       1   13fz3              2.677157      13.496481

                         11       1    4s                5.999661       2.732154

                         12       1    9px               9.284861      23.102519
                         12       1    9py               9.284861      23.102519
                         12       1    9pz               9.284861      23.102519

                         13       1    5s               22.224963       7.295262

                         14       1    6s               82.329769      19.479498

       Atomic covalent radius [Angstrom]:                                  0.770

       Atomic van der Waals radius [Angstrom]:                             1.700

     The atoms of this atomic kind are PAW atoms (GAPW):
       Hard Gaussian function radius:                                      1.512
       Rho0 radius:                                                        1.512
       Maximum GTO radius used for PAW projector construction:            24.566

     GAPW Soft Basis Set                                  aug-SZV-MOLOPT-ae_soft

       Number of orbital shell sets:                                           2
       Number of orbital shells:                                               6
       Number of primitive Cartesian functions:                                6
       Number of Cartesian basis functions:                                   15
       Number of spherical basis functions:                                   14
       Norm type:                                                              2

       Normalised Cartesian orbitals:

                        Set   Shell   Orbital            Exponent    Coefficient

                          1       1    2s                0.070000       0.000000
                                                         0.143687       0.040037
                                                         0.313471       0.177689
                                                         0.721783       0.139661
                                                         1.876046      -0.038599

                          1       2    3s                0.070000      -0.142268
                                                         0.143687       0.288819
                                                         0.313471       0.010360
                                                         0.721783       0.175994
                                                         1.876046       0.000000

                          1       3    3px               0.070000       0.000000
                                                         0.143687       0.012825
                                                         0.313471       0.142381
                                                         0.721783       0.396426
                                                         1.876046       0.544234
                          1       3    3py               0.070000       0.000000
                                                         0.143687       0.012825
                                                         0.313471       0.142381
                                                         0.721783       0.396426
                                                         1.876046       0.544234
                          1       3    3pz               0.070000       0.000000
                                                         0.143687       0.012825
                                                         0.313471       0.142381
                                                         0.721783       0.396426
                                                         1.876046       0.544234

                          1       4    4px               0.070000       0.076505
                                                         0.143687      -0.086104
                                                         0.313471       0.010230
                                                         0.721783       0.129894
                                                         1.876046       0.000000
                          1       4    4py               0.070000       0.076505
                                                         0.143687      -0.086104
                                                         0.313471       0.010230
                                                         0.721783       0.129894
                                                         1.876046       0.000000
                          1       4    4pz               0.070000       0.076505
                                                         0.143687      -0.086104
                                                         0.313471       0.010230
                                                         0.721783       0.129894
                                                         1.876046       0.000000

                          1       5    4dx2              0.070000       0.004316
                                                         0.143687       0.012639
                                                         0.313471       0.125057
                                                         0.721783       0.080411
                                                         1.876046       0.000000
                          1       5    4dxy              0.070000       0.007476
                                                         0.143687       0.021892
                                                         0.313471       0.216606
                                                         0.721783       0.139276
                                                         1.876046       0.000000
                          1       5    4dxz              0.070000       0.007476
                                                         0.143687       0.021892
                                                         0.313471       0.216606
                                                         0.721783       0.139276
                                                         1.876046       0.000000
                          1       5    4dy2              0.070000       0.004316
                                                         0.143687       0.012639
                                                         0.313471       0.125057
                                                         0.721783       0.080411
                                                         1.876046       0.000000
                          1       5    4dyz              0.070000       0.007476
                                                         0.143687       0.021892
                                                         0.313471       0.216606
                                                         0.721783       0.139276
                                                         1.876046       0.000000
                          1       5    4dz2              0.070000       0.004316
                                                         0.143687       0.012639
                                                         0.313471       0.125057
                                                         0.721783       0.080411
                                                         1.876046       0.000000

                          2       1    1s                2.093200       0.161650

     AE Potential information for                                            ALL

       Description:                                       All-electron potential
                                          Krack, Parrinello, PCCP 2, 2105 (2000)

       Gaussian exponent of the core charge distribution:               4.109048
       Electronic configuration (s p d ...):                           4   2   0

  2. Atomic kind: O                                     Number of atoms:       1

     Orbital Basis Set                                         aug-SZV-MOLOPT-ae

       Number of orbital shell sets:                                           2
       Number of orbital shells:                                               5
       Number of primitive Cartesian functions:                               13
       Number of Cartesian basis functions:                                    9
       Number of spherical basis functions:                                    9
       Norm type:                                                              2

       Normalised Cartesian orbitals:

                        Set   Shell   Orbital            Exponent    Coefficient

                          1       1    1s                0.123000       0.000000
                                                         0.245881       0.059902
                                                         0.536420       0.265853
                                                         1.235135       0.208956
                                                         3.210345      -0.057750
                                                        10.329320      -0.192968
                                                        52.187762      -0.183398

                          1       2    2s                0.123000      -0.253465
                                                         0.245881       0.187097
                                                         0.536420       0.063592
                                                         1.235135       0.074938
                                                         3.210345       0.000000
                                                        10.329320       0.000000
                                                        52.187762       0.000000

                          1       3    2px               0.123000       0.000000
                                                         0.245881       0.025102
                                                         0.536420       0.278668
                                                         1.235135       0.775885
                                                         3.210345       1.065175
                                                        10.329320       0.994565
                                                        52.187762       0.751716
                          1       3    2py               0.123000       0.000000
                                                         0.245881       0.025102
                                                         0.536420       0.278668
                                                         1.235135       0.775885
                                                         3.210345       1.065175
                                                        10.329320       0.994565
                                                        52.187762       0.751716
                          1       3    2pz               0.123000       0.000000
                                                         0.245881       0.025102
                                                         0.536420       0.278668
                                                         1.235135       0.775885
                                                         3.210345       1.065175
                                                        10.329320       0.994565
                                                        52.187762       0.751716

                          1       4    3px               0.123000       0.048536
                                                         0.245881       0.257066
                                                         0.536420      -0.539300
                                                         1.235135      -0.153605
                                                         3.210345       0.000000
                                                        10.329320       0.000000
                                                        52.187762       0.000000
                          1       4    3py               0.123000       0.048536
                                                         0.245881       0.257066
                                                         0.536420      -0.539300
                                                         1.235135      -0.153605
                                                         3.210345       0.000000
                                                        10.329320       0.000000
                                                        52.187762       0.000000
                          1       4    3pz               0.123000       0.048536
                                                         0.245881       0.257066
                                                         0.536420      -0.539300
                                                         1.235135      -0.153605
                                                         3.210345       0.000000
                                                        10.329320       0.000000
                                                        52.187762       0.000000

                          2       1    1s             1355.584234       1.459053
                                                       248.544885       2.202176
                                                        69.533902       2.892385
                                                        23.886772       2.853580
                                                         9.275933       1.577736
                                                         3.820341       0.253831

     RI Auxiliary Basis Set             RI_aug-SZV-MOLOPT-ae_N_RI_039_s_p_d_f_g_

       Number of orbital shell sets:                                          13
       Number of orbital shells:                                              13
       Number of primitive Cartesian functions:                               13
       Number of Cartesian basis functions:                                   45
       Number of spherical basis functions:                                   39
       Norm type:                                                              2

       Normalised Cartesian orbitals:

                        Set   Shell   Orbital            Exponent    Coefficient

                          1       1    6px               0.339985       0.370054
                          1       1    6py               0.339985       0.370054
                          1       1    6pz               0.339985       0.370054

                          2       1    1s                0.360717       0.331730

                          3       1   10dx2              0.387676       0.313495
                          3       1   10dxy              0.387676       0.542989
                          3       1   10dxz              0.387676       0.542989
                          3       1   10dy2              0.387676       0.313495
                          3       1   10dyz              0.387676       0.542989
                          3       1   10dz2              0.387676       0.313495

                          4       1    2s                1.025597       0.726344

                          5       1   11dx2              1.429532       3.076087
                          5       1   11dxy              1.429532       5.327939
                          5       1   11dxz              1.429532       5.327939
                          5       1   11dy2              1.429532       3.076087
                          5       1   11dyz              1.429532       5.327939
                          5       1   11dz2              1.429532       3.076087

                          6       1    7px               1.889939       3.158637
                          6       1    7py               1.889939       3.158637
                          6       1    7pz               1.889939       3.158637

                          7       1   13fx3              2.090453       7.735623
                          7       1   13fx2y             2.090453      17.297380
                          7       1   13fx2z             2.090453      17.297380
                          7       1   13fxy2             2.090453      17.297380
                          7       1   13fxyz             2.090453      29.959941
                          7       1   13fxz2             2.090453      17.297380
                          7       1   13fy3              2.090453       7.735623
                          7       1   13fy2z             2.090453      17.297380
                          7       1   13fyz2             2.090453      17.297380
                          7       1   13fz3              2.090453       7.735623

                          8       1    3s                4.532550       2.213946

                          9       1   12dx2              4.657163      24.300880
                          9       1   12dxy              4.657163      42.090359
                          9       1   12dxz              4.657163      42.090359
                          9       1   12dy2              4.657163      24.300880
                          9       1   12dyz              4.657163      42.090359
                          9       1   12dz2              4.657163      24.300880

                         10       1    8px               7.383619      17.349090
                         10       1    8py               7.383619      17.349090
                         10       1    8pz               7.383619      17.349090

                         11       1    4s               28.138782       8.707411

                         12       1    9px              31.263869     105.376434
                         12       1    9py              31.263869     105.376434
                         12       1    9pz              31.263869     105.376434

                         13       1    5s              157.923413      31.750092

       Atomic covalent radius [Angstrom]:                                  0.730

       Atomic van der Waals radius [Angstrom]:                             1.520

     The atoms of this atomic kind are PAW atoms (GAPW):
       Hard Gaussian function radius:                                      1.512
       Rho0 radius:                                                        1.512
       Maximum GTO radius used for PAW projector construction:            24.566

     GAPW Soft Basis Set                                  aug-SZV-MOLOPT-ae_soft

       Number of orbital shell sets:                                           2
       Number of orbital shells:                                               5
       Number of primitive Cartesian functions:                                6
       Number of Cartesian basis functions:                                    9
       Number of spherical basis functions:                                    9
       Norm type:                                                              2

       Normalised Cartesian orbitals:

                        Set   Shell   Orbital            Exponent    Coefficient

                          1       1    1s                0.123000       0.000000
                                                         0.245881       0.059902
                                                         0.536420       0.265853
                                                         1.235135       0.208956
                                                         3.210345      -0.057750

                          1       2    2s                0.123000      -0.253465
                                                         0.245881       0.187097
                                                         0.536420       0.063592
                                                         1.235135       0.074938
                                                         3.210345       0.000000

                          1       3    2px               0.123000       0.000000
                                                         0.245881       0.025102
                                                         0.536420       0.278668
                                                         1.235135       0.775885
                                                         3.210345       1.065175
                          1       3    2py               0.123000       0.000000
                                                         0.245881       0.025102
                                                         0.536420       0.278668
                                                         1.235135       0.775885
                                                         3.210345       1.065175
                          1       3    2pz               0.123000       0.000000
                                                         0.245881       0.025102
                                                         0.536420       0.278668
                                                         1.235135       0.775885
                                                         3.210345       1.065175

                          1       4    3px               0.123000       0.048536
                                                         0.245881       0.257066
                                                         0.536420      -0.539300
                                                         1.235135      -0.153605
                                                         3.210345       0.000000
                          1       4    3py               0.123000       0.048536
                                                         0.245881       0.257066
                                                         0.536420      -0.539300
                                                         1.235135      -0.153605
                                                         3.210345       0.000000
                          1       4    3pz               0.123000       0.048536
                                                         0.245881       0.257066
                                                         0.536420      -0.539300
                                                         1.235135      -0.153605
                                                         3.210345       0.000000

                          2       1    1s                3.820341       0.253831

     AE Potential information for                                            ALL

       Description:                                       All-electron potential
                                          Krack, Parrinello, PCCP 2, 2105 (2000)

       Gaussian exponent of the core charge distribution:               8.154466
       Electronic configuration (s p d ...):                           4   4   0


 MOLECULE KIND INFORMATION


 All atoms are their own molecule, skipping detailed information


 TOTAL NUMBERS AND MAXIMUM NUMBERS

  Total number of            - Atomic kinds:                                   2
                             - Atoms:                                          2
                             - Shell sets:                                     4
                             - Shells:                                        11
                             - Primitive Cartesian functions:                 26
                             - Cartesian basis functions:                     24
                             - Spherical basis functions:                     23

  Maximum angular momentum of the orbital basis functions:                     2


 MODULE QUICKSTEP: ATOMIC COORDINATES IN ANGSTROM

   Atom Kind Element         X             Y             Z       Z(eff)     Mass
      1    1 C     6     14.434300     15.000000     15.000000   6.0000  12.0107
      2    2 O     8     15.565700     15.000000     15.000000   8.0000  15.9994



 SCF PARAMETERS         Density guess:                                   RESTART
                        --------------------------------------------------------
                        max_scf:                                             500
                        max_scf_history:                                       0
                        max_diis:                                              4
                        --------------------------------------------------------
                        eps_scf:                                        1.00E-06
                        eps_scf_history:                                0.00E+00
                        eps_diis:                                       1.00E-01
                        eps_eigval:                                     1.00E-05
                        --------------------------------------------------------
                        level_shift [a.u.]:                             0.000000
                        --------------------------------------------------------
                        Outer loop SCF in use 
                        No variables optimised in outer loop
                        eps_scf                                         1.00E-06
                        max_scf                                               20
                        No outer loop optimization
                        step_size                                       5.00E-01

 PW_GRID| Information for grid number                                          1
 PW_GRID| Grid distributed over                                   192 processors
 PW_GRID| Real space group dimensions                                   192    1
 PW_GRID| the grid is blocked:                                                NO
 PW_GRID| Cutoff [a.u.]                                                    250.0
 PW_GRID| spherical cutoff:                                                   NO
 PW_GRID|   Bounds   1           -202     202                Points:         405
 PW_GRID|   Bounds   2           -202     202                Points:         405
 PW_GRID|   Bounds   3           -202     202                Points:         405
 PW_GRID| Volume element (a.u.^3)  0.2743E-02     Volume (a.u.^3)    182205.0337
 PW_GRID| Grid span                                                    FULLSPACE
 PW_GRID|   Distribution                         Average         Max         Min
 PW_GRID|   G-Vectors                           345990.2      346275      345870
 PW_GRID|   G-Rays                                 854.3         855         854
 PW_GRID|   Real Space Points                   345990.2      492075      328050

 PW_GRID| Information for grid number                                          2
 PW_GRID| Number of the reference grid                                         1
 PW_GRID| Grid distributed over                                   192 processors
 PW_GRID| Real space group dimensions                                   192    1
 PW_GRID| the grid is blocked:                                                NO
 PW_GRID| Cutoff [a.u.]                                                     83.3
 PW_GRID| spherical cutoff:                                                   NO
 PW_GRID|   Bounds   1           -120     119                Points:         240
 PW_GRID|   Bounds   2           -120     119                Points:         240
 PW_GRID|   Bounds   3           -120     119                Points:         240
 PW_GRID| Volume element (a.u.^3)  0.1318E-01     Volume (a.u.^3)    182205.0337
 PW_GRID| Grid span                                                    FULLSPACE
 PW_GRID|   Distribution                         Average         Max         Min
 PW_GRID|   G-Vectors                            72000.0       72240       71760
 PW_GRID|   G-Rays                                 300.0         301         299
 PW_GRID|   Real Space Points                    72000.0      115200       57600

 PW_GRID| Information for grid number                                          3
 PW_GRID| Number of the reference grid                                         1
 PW_GRID| Grid distributed over                                   192 processors
 PW_GRID| Real space group dimensions                                    12   16
 PW_GRID| the grid is blocked:                                                NO
 PW_GRID| Cutoff [a.u.]                                                     27.8
 PW_GRID| spherical cutoff:                                                   NO
 PW_GRID|   Bounds   1            -67      67                Points:         135
 PW_GRID|   Bounds   2            -67      67                Points:         135
 PW_GRID|   Bounds   3            -67      67                Points:         135
 PW_GRID| Volume element (a.u.^3)  0.7406E-01     Volume (a.u.^3)    182205.0337
 PW_GRID| Grid span                                                    FULLSPACE
 PW_GRID|   Distribution                         Average         Max         Min
 PW_GRID|   G-Vectors                            12814.5       12960       12690
 PW_GRID|   G-Rays                                  94.9          96          94
 PW_GRID|   Real Space Points                    12814.5       14580       11880

 PW_GRID| Information for grid number                                          4
 PW_GRID| Number of the reference grid                                         1
 PW_GRID| Grid distributed over                                   192 processors
 PW_GRID| Real space group dimensions                                    12   16
 PW_GRID| the grid is blocked:                                                NO
 PW_GRID| Cutoff [a.u.]                                                      9.3
 PW_GRID| spherical cutoff:                                                   NO
 PW_GRID|   Bounds   1            -40      39                Points:          80
 PW_GRID|   Bounds   2            -40      39                Points:          80
 PW_GRID|   Bounds   3            -40      39                Points:          80
 PW_GRID| Volume element (a.u.^3)  0.3559         Volume (a.u.^3)    182205.0337
 PW_GRID| Grid span                                                    FULLSPACE
 PW_GRID|   Distribution                         Average         Max         Min
 PW_GRID|   G-Vectors                             2666.7        2800        2560
 PW_GRID|   G-Rays                                  33.3          35          32
 PW_GRID|   Real Space Points                     2666.7        2800        2400

 POISSON| Solver                                                         WAVELET
 POISSON| Wavelet| Scaling function                                           40
 POISSON| Periodicity                                                       NONE

 RS_GRID| Information for grid number                                          1
 RS_GRID|   Bounds   1           -202     202                Points:         405
 RS_GRID|   Bounds   2           -202     202                Points:         405
 RS_GRID|   Bounds   3           -202     202                Points:         405
 RS_GRID| Real space distribution over                                  4 groups
 RS_GRID| Real space distribution along direction                              1
 RS_GRID| Border size                                                         33
 RS_GRID| Real space distribution over                                  6 groups
 RS_GRID| Real space distribution along direction                              2
 RS_GRID| Border size                                                         33
 RS_GRID| Real space distribution over                                  8 groups
 RS_GRID| Real space distribution along direction                              3
 RS_GRID| Border size                                                         33
 RS_GRID|   Distribution                         Average         Max         Min
 RS_GRID|   Planes                                 167.2         168         167
 RS_GRID|   Distribution                         Average         Max         Min
 RS_GRID|   Planes                                 133.5         134         133
 RS_GRID|   Distribution                         Average         Max         Min
 RS_GRID|   Planes                                 116.6         117         116

 RS_GRID| Information for grid number                                          2
 RS_GRID|   Bounds   1           -120     119                Points:         240
 RS_GRID|   Bounds   2           -120     119                Points:         240
 RS_GRID|   Bounds   3           -120     119                Points:         240
 RS_GRID| Real space distribution over                                  4 groups
 RS_GRID| Real space distribution along direction                              1
 RS_GRID| Border size                                                         36
 RS_GRID| Real space distribution over                                  6 groups
 RS_GRID| Real space distribution along direction                              2
 RS_GRID| Border size                                                         36
 RS_GRID| Real space distribution over                                  8 groups
 RS_GRID| Real space distribution along direction                              3
 RS_GRID| Border size                                                         36
 RS_GRID|   Distribution                         Average         Max         Min
 RS_GRID|   Planes                                 132.0         132         132
 RS_GRID|   Distribution                         Average         Max         Min
 RS_GRID|   Planes                                 112.0         112         112
 RS_GRID|   Distribution                         Average         Max         Min
 RS_GRID|   Planes                                 102.0         102         102

 RS_GRID| Information for grid number                                          3
 RS_GRID|   Bounds   1            -67      67                Points:         135
 RS_GRID|   Bounds   2            -67      67                Points:         135
 RS_GRID|   Bounds   3            -67      67                Points:         135
 RS_GRID| Real space fully replicated
 RS_GRID| Group size                                                           1

 RS_GRID| Information for grid number                                          4
 RS_GRID|   Bounds   1            -40      39                Points:          80
 RS_GRID|   Bounds   2            -40      39                Points:          80
 RS_GRID|   Bounds   3            -40      39                Points:          80
 RS_GRID| Real space fully replicated
 RS_GRID| Group size                                                           1

  HFX_INFO| Replica ID:                                                        1
  HFX_INFO| FRACTION:                                               0.2500000000
  HFX_INFO| Interaction Potential:                                       COULOMB
  HFX_INFO| EPS_SCHWARZ:                                                 1.0E-10
  HFX_INFO| EPS_SCHWARZ_FORCES                                           1.0E-08
  HFX_INFO| EPS_STORAGE_SCALING:                                         1.0E+00
  HFX_INFO| NBINS:                                                            64
  HFX_INFO| BLOCK_SIZE:                                                        1
  HFX_INFO| Number of periodic shells considered:                           NONE
  HFX_INFO| Number of periodic cells considered:                            NONE


 OVERLAP MATRIX CONDITION NUMBER
 1-Norm Condition Number (Estimate)
   CN : |A|*|A^-1|:  3.980E+000 *  5.491E+001   = 2.185E+002  Log(1-CN):  2.3395
 1-Norm and 2-Norm Condition Numbers using Diagonalization
   CN : |A|*|A^-1|:  3.980E+000 *  5.491E+001   = 2.185E+002  Log(1-CN):  2.3395
   CN : max/min ev:  2.848E+000 /  2.876E-002   = 9.901E+001  Log(2-CN):  1.9957

 Number of electrons:                                                         14
 Number of occupied orbitals:                                                  7
 Number of molecular orbitals:                                                 7

 Number of orbital functions:                                                 23
 Number of independent orbital functions:                                     23

 Extrapolation method: initial_guess

 *** WARNING in qs_initial_guess.F:306 :: User requested to restart the    ***
 *** wavefunction from the file named: MoS2-RESTART.wfn. This file does    ***
 *** not exist. Please check the existence of the file or change properly  ***
 *** the value of the keyword WFN_RESTART_FILE_NAME. Calculation continues ***
 *** using ATOMIC GUESS.                                                   ***


 Atomic guess: The first density matrix is obtained in terms of atomic orbitals
               and electronic configurations assigned to each atomic kind

 Guess for atomic kind: C

 Electronic structure
    Total number of core electrons                                          0.00
    Total number of valence electrons                                       6.00
    Total number of electrons                                               6.00
    Multiplicity                                                   not specified
    S      2.00  2.00
    P      2.00


 *******************************************************************************
                  Iteration          Convergence                     Energy [au]
 *******************************************************************************
                          1        0.181972E-01                 -37.327047058214
                          2        0.113690E-01                 -37.327375013153
                          3        0.204442E-03                 -37.327563854518
                          4        0.318580E-06                 -37.327563914839

 Energy components [Hartree]           Total Energy ::          -37.327563914839
                                        Band Energy ::          -20.907151793925
                                     Kinetic Energy ::           37.918401132701
                                   Potential Energy ::          -75.245965047540
                                      Virial (-V/T) ::            1.984418192745
                                        Core Energy ::          -50.466619839572
                                          XC Energy ::           -4.803795746723
                                     Coulomb Energy ::           17.942851671456

 Orbital energies  State     L     Occupation   Energy[a.u.]          Energy[eV]

                       1     0          2.000      -9.826687         -267.397747
                       2     0          2.000      -0.471401          -12.827469

                       1     1          2.000      -0.155488           -4.231050


 Total Electron Density at R=0:                                       107.717880

 Guess for atomic kind: O

 Electronic structure
    Total number of core electrons                                          0.00
    Total number of valence electrons                                       8.00
    Total number of electrons                                               8.00
    Multiplicity                                                   not specified
    S      2.00  2.00
    P      4.00


 *******************************************************************************
                  Iteration          Convergence                     Energy [au]
 *******************************************************************************
                          1        0.735249                     -74.156692399509
                          2        0.374970                     -74.229519281434
                          3        0.137476E-02                 -74.265323889138
                          4        0.125117E-03                 -74.265324305080
                          5        0.240576E-05                 -74.265324309459
                          6        0.135447E-05                 -74.265324309460
                          7        0.538171E-07                 -74.265324309461

 Energy components [Hartree]           Total Energy ::          -74.265324309461
                                        Band Energy ::          -41.262202594008
                                     Kinetic Energy ::           72.991524336317
                                   Potential Energy ::         -147.256848645778
                                      Virial (-V/T) ::            2.017451340888
                                        Core Energy ::         -102.038650666845
                                          XC Energy ::           -7.668930692176
                                     Coulomb Energy ::           35.442257049561

 Orbital energies  State     L     Occupation   Energy[a.u.]          Energy[eV]

                       1     0          2.000     -18.982629         -516.543598
                       2     0          2.000      -0.922184          -25.093913

                       1     1          4.000      -0.363144           -9.881653


 Total Electron Density at R=0:                                       265.214148
 Re-scaling the density matrix to get the right number of electrons
                  # Electrons              Trace(P)               Scaling factor
                           14                14.000                        1.000


 SCF WAVEFUNCTION OPTIMIZATION

  ----------------------------------- OT ---------------------------------------
  Minimizer      : CG                  : conjugate gradient
  Preconditioner : FULL_SINGLE_INVERSE : inversion of 
                                         H + eS - 2*(Sc)(c^T*H*c+const)(Sc)^T
  Precond_solver : DEFAULT
  Line search    : 3PNT                : 3 energies
  stepsize       :    0.08000000                  energy_gap     :    0.08000000
  eps_taylor     :   0.10000E-15                  max_taylor     :             4
  ----------------------------------- OT ---------------------------------------

  Step     Update method      Time    Convergence         Total energy    Change
  ------------------------------------------------------------------------------

  HFX_MEM_INFO| Est. max. program size before HFX [MiB]:                     479
  HFX_MEM_INFO| Number of cart. primitive ERI's calculated:             63363119
  HFX_MEM_INFO| Number of sph. ERI's calculated:                          111631
  HFX_MEM_INFO| Number of sph. ERI's stored in-core:                      111631
  HFX_MEM_INFO| Number of sph. ERI's stored on disk:                           0
  HFX_MEM_INFO| Number of sph. ERI's calculated on the fly:                    0
  HFX_MEM_INFO| Total memory consumption ERI's RAM [MiB]:                      7
  HFX_MEM_INFO| Whereof max-vals [MiB]:                                        6
  HFX_MEM_INFO| Total compression factor ERI's RAM:                         0.13
  HFX_MEM_INFO| Total memory consumption ERI's disk [MiB]:                     0
  HFX_MEM_INFO| Total compression factor ERI's disk:                        0.00
  HFX_MEM_INFO| Size of density/Fock matrix [MiB]:                             0
  HFX_MEM_INFO| Size of buffers [MiB]:                                         0
  HFX_MEM_INFO| Est. max. program size after HFX  [MiB]:                    1018

     1 OT CG       0.64E-01    4.6     1.16962432      -109.5436565098 -1.10E+02
     2 OT LS       0.32E-01    0.8                     -104.5470166469
     3 OT LS       0.24E-01    0.8                     -111.8058647536
     4 OT CG       0.19E-01    1.0     0.17562290      -112.1638805327 -2.62E+00
     5 OT LS       0.26E-01    0.7                     -112.2255218059
     6 OT LS       0.28E-01    0.7                     -112.2327857554
     7 OT CG       0.23E-01    1.0     0.15715724      -112.2330502575 -6.92E-02
     8 OT LS       0.32E-01    0.7                     -112.2994379469
     9 OT LS       0.44E-01    0.7                     -112.3130052690
    10 OT CG       0.35E-01    1.0     0.16445224      -112.3196063729 -8.66E-02
    11 OT LS       0.49E-01    0.7                     -112.4525854792
    12 OT LS       0.14E+00    0.7                     -112.4947881558
    13 OT CG       0.11E+00    1.1     0.16046510      -112.6057644322 -2.86E-01
    14 OT LS       0.15E+00    0.7                     -112.6392068563
    15 OT LS       0.59E-01    0.7                     -112.4425765572
    16 OT CG       0.47E-01    1.0     0.08680095      -112.7179181581 -1.12E-01
    17 OT LS       0.66E-01    0.7                     -112.7554932012
    18 OT LS       0.69E-01    0.7                     -112.7595870734
    19 OT CG       0.55E-01    1.0     0.10058840      -112.7596641031 -4.17E-02
    20 OT LS       0.77E-01    0.7                     -112.7780064390
    21 OT LS       0.35E-01    0.7                     -112.7454272356
    22 OT CG       0.28E-01    1.0     0.08993543      -112.7879005170 -2.82E-02
    23 OT LS       0.39E-01    0.7                     -112.8172015501
    24 OT LS       0.73E-01    0.7                     -112.8250897101
    25 OT CG       0.59E-01    1.0     0.05814271      -112.8355167181 -4.76E-02
    26 OT LS       0.82E-01    0.8                     -112.8513364801
    27 OT LS       0.59E-01    0.8                     -112.8488508668
    28 OT CG       0.47E-01    1.0     0.03344138      -112.8513364196 -1.58E-02
    29 OT LS       0.66E-01    0.7                     -112.8569949704
    30 OT LS       0.71E-01    0.7                     -112.8576926393
    31 OT CG       0.57E-01    1.0     0.03647545      -112.8577276334 -6.39E-03
    32 OT LS       0.80E-01    0.7                     -112.8643974630
    33 OT LS       0.63E-01    0.7                     -112.8639992093
    34 OT CG       0.50E-01    1.0     0.04709612      -112.8644614746 -6.73E-03
    35 OT LS       0.71E-01    0.7                     -112.8711495872
    36 OT LS       0.40E-01    0.7                     -112.8675432976
    37 OT CG       0.32E-01    1.0     0.02598705      -112.8716148911 -7.15E-03
    38 OT LS       0.45E-01    0.7                     -112.8741786914
    39 OT LS       0.60E-01    0.8                     -112.8746816279
    40 OT CG       0.48E-01    1.0     0.01301799      -112.8748908580 -3.28E-03
    41 OT LS       0.68E-01    0.7                     -112.8758565211
    42 OT LS       0.90E-01    0.7                     -112.8760453495
    43 OT CG       0.72E-01    1.0     0.01285599      -112.8761231072 -1.23E-03
    44 OT LS       0.10E+00    0.7                     -112.8775897156
    45 OT LS       0.15E+00    0.7                     -112.8779203194
    46 OT CG       0.12E+00    1.0     0.01591981      -112.8781464505 -2.02E-03
    47 OT LS       0.61E-01    0.7                     -112.8759541718
    48 OT LS       0.42E-01    0.7                     -112.8788384163
    49 OT CG       0.34E-01    1.0     0.01065524      -112.8790064623 -8.60E-04
    50 OT LS       0.47E-01    0.7                     -112.8791908345
    51 OT LS       0.24E-01    0.7                     -112.8790222401
    52 OT CG       0.19E-01    1.0     0.00494684      -112.8792264390 -2.20E-04
    53 OT LS       0.27E-01    0.7                     -112.8792906782
    54 OT LS       0.63E-01    0.7                     -112.8793098715
    55 OT CG       0.50E-01    1.1     0.00395795      -112.8793503104 -1.24E-04
    56 OT LS       0.70E-01    0.7                     -112.8794539401
    57 OT LS       0.14E+00    0.7                     -112.8794823878
    58 OT CG       0.11E+00    1.0     0.00481060      -112.8795235281 -1.73E-04
    59 OT LS       0.15E+00    0.7                     -112.8796566237
    60 OT LS       0.81E-01    0.7                     -112.8795553827
    61 OT CG       0.65E-01    1.0     0.00368190      -112.8796751308 -1.52E-04
    62 OT LS       0.91E-01    0.8                     -112.8797275145
    63 OT LS       0.52E-01    0.7                     -112.8796981961
    64 OT CG       0.41E-01    1.0     0.00249529      -112.8797314092 -5.63E-05
    65 OT LS       0.58E-01    0.7                     -112.8797507318
    66 OT LS       0.39E-01    0.8                     -112.8797461097
    67 OT CG       0.31E-01    1.0     0.00259924      -112.8797508164 -1.94E-05
    68 OT LS       0.43E-01    0.7                     -112.8797772119
    69 OT LS       0.71E-01    0.7                     -112.8797836825
    70 OT CG       0.57E-01    1.0     0.00192154      -112.8797897005 -3.89E-05
    71 OT LS       0.80E-01    0.7                     -112.8798109235
    72 OT LS       0.76E-01    0.7                     -112.8798122580
    73 OT CG       0.61E-01    1.0     0.00110624      -112.8798123196 -2.26E-05
    74 OT LS       0.85E-01    0.7                     -112.8798186643
    75 OT LS       0.65E-01    0.7                     -112.8798180375
    76 OT CG       0.52E-01    1.0     0.00087732      -112.8798186855 -6.37E-06
    77 OT LS       0.72E-01    0.7                     -112.8798238784
    78 OT LS       0.14E+00    0.7                     -112.8798252762
    79 OT CG       0.11E+00    1.0     0.00141063      -112.8798271422 -8.46E-06
    80 OT LS       0.55E-01    0.7                     -112.8798143636
    81 OT LS       0.40E-01    0.8                     -112.8798326938
    82 OT CG       0.32E-01    1.0     0.00116301      -112.8798335483 -6.41E-06
    83 OT LS       0.45E-01    0.7                     -112.8798373249
    84 OT LS       0.35E-01    0.7                     -112.8798370488
    85 OT CG       0.28E-01    1.0     0.00051507      -112.8798373518 -3.80E-06
    86 OT LS       0.39E-01    0.7                     -112.8798382615
    87 OT LS       0.59E-01    0.7                     -112.8798384664
    88 OT CG       0.47E-01    1.0     0.00033742      -112.8798386065 -1.25E-06
    89 OT LS       0.66E-01    0.7                     -112.8798393012
    90 OT LS       0.12E+00    0.7                     -112.8798394857
    91 OT CG       0.97E-01    1.0     0.00043036      -112.8798397190 -1.11E-06
    92 OT LS       0.14E+00    0.7                     -112.8798413876
    93 OT LS       0.11E+00    0.8                     -112.8798413677
[...]
 x_to_yz                           1935 13.8    2.685    3.743   25.803   26.357
 yz_to_x                           1822 13.7    1.794    2.008   23.908   25.032
 qs_vxc_create                      172  8.0    0.002    0.002   22.956   22.960
 transfer_rs2pw                    1430  9.7    0.042    0.064   22.388   22.849
 tddfpt_apply_xc_analytic           112  9.0    0.084    0.099   21.466   21.837
 integrate_four_center              396  9.6    8.549   17.458   21.612   21.757
 mp_sync                           2207 11.4   10.592   19.021   10.592   19.021
 xc_pw_divergence                   170 10.7    0.006    0.008   18.633   18.860
 prepare_gapw_den                   285  8.4    0.004    0.005   17.604   17.733
 integrate_v_rspace                 170  9.0    0.003    0.004   17.383   17.445
 transfer_pw2rs                     965 10.6    0.013    0.017   17.175   17.438
 grid_collocate_task_list           286  8.6   16.004   17.117   16.004   17.117
 potential_pw2rs                    170 10.0    0.038    0.049   16.218   16.312
 xc_rho_set_and_dset_create         173 10.0    0.232    0.275   14.305   16.210
 mp_waitany                       80994 12.1   13.950   15.304   13.950   15.304
 put_rho0_on_grid                   285  9.4    0.708    1.026   14.669   14.798
 xc_calc_2nd_deriv_analytical       560 10.0    0.604    0.663   12.814   12.838
 mp_alltoall_d45                    285 10.8    9.469   12.399    9.469   12.399
 tddfpt_apply_hfx                     6  8.0    0.002    0.003   12.302   12.302
 mp_alltoall_d11v                 11842 11.8    8.616   12.186    8.616   12.186
 transfer_rs2pw_250                 572 11.0    4.507    4.935   11.489   12.184
 xc_vxc_pw_create                    58  9.0    0.183    0.248   12.033   12.033
 hfx_ks_matrix                      172  8.0    0.006    0.007   11.179   11.310
 transfer_pw2rs_250                 455 11.2    3.627    4.081   10.580   11.033
 xc_exc_calc                        114  9.0    0.277    0.395   10.922   10.925
 tddft_hfx_matrix                   224  9.0    0.005    0.007   10.446   10.504
 integrate_vhg0_rspace              284  8.8    0.101    0.124    9.346    9.854
 mp_sum_d                          5026  9.7    6.663    7.478    6.663    7.478
 transfer_rs2pw_30                  286 10.6    2.509    2.627    5.891    5.988
 sum_up_and_integrate                58  8.0    0.001    0.001    5.880    5.901
 dbcsr_multiply_generic            3020  9.9    0.121    0.131    5.485    5.605
 qs_scf_new_mos                     172  5.0    0.001    0.001    5.210    5.243
 qs_scf_loop_do_ot                  172  6.0    0.001    0.001    5.210    5.242
 ot_scf_mini                        172  7.0    0.002    0.003    4.893    4.924
 gaVxcgb_GC                         340  9.7    0.025    4.840    0.025    4.840
 mp_waitall_1                    657862 13.3    3.486    4.773    3.486    4.773
 mp_sendrecv_dv                  109252 11.6    4.425    4.612    4.425    4.612
 init_scf_loop                        1  4.0    0.000    0.000    4.568    4.568
 cp_dbcsr_sm_fm_multiply            721  8.5    0.014    0.018    4.360    4.444
 cp2k_distribution_to_z_slices      284  9.8    1.652    1.973    4.038    4.384
 pw_scatter_p                      2275 12.8    3.711    3.907    3.711    3.907
 calculate_xc_2nd_deriv_atom        112  9.0    0.015    0.442    0.043    3.838
 transfer_rs2pw_90                  286 10.6    0.779    0.864    3.273    3.806
 dbcsr_complete_redistribute       2618 10.7    0.096    0.135    3.500    3.573
 transfer_pw2rs_30                  170 12.0    1.543    1.679    3.396    3.520
 mp_isend_dm3                      9810 12.1    0.730    3.240    0.730    3.240
 pw_gather_p                       2394 12.5    2.791    3.115    2.791    3.115
 pw_derive                         2217 11.5    2.876    3.101    2.876    3.101
 rs_grid_zero                      1195 11.3    2.762    2.886    2.762    2.886
 multiply_cannon                   3020 10.9    0.305    0.312    2.658    2.865
 calculate_rho_atom                 570  9.4    0.812    2.826    0.812    2.826
 fft_wrap_pw1pw2_90                 456 11.1    0.084    0.173    2.397    2.687
 transfer_pw2rs_90                  170 12.0    0.491    0.561    2.135    2.526
 copy_dbcsr_to_fm                   930  9.7    0.012    0.013    2.467    2.491
 pw_copy                           3471 10.8    2.187    2.310    2.187    2.310
 qs_ot_get_p                        173  8.0    0.001    0.001    2.290    2.294
 xc_functional_eval                1309 11.0    0.001    0.004    0.535    2.294
 pbe_lda_eval                      1309 12.0    0.533    2.290    0.533    2.290
 copy_fm_to_dbcsr                  1686  9.8    0.007    0.008    2.213    2.288
 multiply_cannon_loop              3020 11.9    0.466    0.523    2.032    2.236
 calculate_vxc_atom                 172  8.0    0.048    0.371    2.225    2.227
 mp_sum_dv                        12187 10.6    2.192    2.222    2.192    2.222
 mp_sum_dm                         1737  9.0    1.770    2.048    1.770    2.048
 pw_poisson_set                     285  9.8    0.008    0.009    1.987    2.023
 mp_isendrecv_dv                 216212 12.0    0.979    1.909    0.979    1.909
 qs_ot_p2m_diag                     172  9.0    0.004    0.005    1.809    1.821
 integrate_four_center_main         396 10.6    0.057    0.805    0.068    1.784
 transfer_rs2pw_10                  286 10.6    0.649    0.700    1.692    1.731
 pw_copy_to_array                  2394 12.5    1.164    1.675    1.164    1.675
 mp_alltoall_i11v                  8956 11.7    1.664    1.665    1.664    1.665
 make_m2s                          6040 10.9    0.097    0.106    1.496    1.538
 ot_mini                            172  8.0    0.001    0.001    1.519    1.531
 mp_isend_dv                     205762 13.3    0.910    1.526    0.910    1.526
 qs_ot_get_derivative                58  9.0    0.000    0.001    1.401    1.403
 pw_integral_ab_c1d_c1d_gs          284  9.8    1.039    1.047    1.311    1.398
 mp_irecv_dm3                      9810 12.1    0.600    1.282    0.600    1.282
 cp_dbcsr_syevd                     172 10.0    0.010    0.010    1.204    1.211
 make_images                       6040 11.9    0.284    0.290    1.184    1.202
 rs_gather_matrices                 170 10.0    0.002    0.007    1.123    1.180
 dbcsr_desymmetrize_deep            931 10.7    0.024    0.026    1.123    1.141
 cp_dbcsr_sm_fm_multiply_core       721  9.5    0.002    0.002    1.092    1.140
 transfer_pw2rs_10                  170 12.0    0.400    0.491    1.051    1.121
 qs_ot_get_derivative_diag           57 10.0    0.001    0.001    1.091    1.092
 grid_integrate_task_list           170 10.0    0.038    1.079    0.038    1.079
 pw_axpy                           2390 10.1    0.938    1.026    0.938    1.026
 integrate_four_center_bin        30929 11.6    0.011    0.979    0.011    0.979
 calc_screening_functions             1 10.0    0.605    0.658    0.926    0.977
 mp_sum_l                         13621 10.6    0.881    0.963    0.881    0.963
 Vh_1c_gg_integrals                 284  8.8    0.020    0.494    0.873    0.952
 mp_max_i                           747  5.2    0.794    0.933    0.794    0.933
 cp_dbcsr_plus_fm_fm_t              113  9.0    0.002    0.002    0.912    0.924
 pw_copy_from_array                2275 12.8    0.774    0.906    0.774    0.906
 tddfpt_orthonormalize_psi1_psi       7  6.9    0.010    0.011    0.891    0.892
 fft_wrap_pw1pw2_30                 456 11.1    0.014    0.016    0.832    0.884
 pw_zero                           2380 10.5    0.803    0.869    0.803    0.869
 mp_alltoall_z11v                   912 14.1    0.763    0.816    0.763    0.816
 cp_fm_syevd                        220 10.2    0.001    0.002    0.778    0.781
 multiply_cannon_metrocomm3       72480 12.9    0.217    0.227    0.559    0.765
 tddfpt_apply_energy_diff             6  8.0    0.000    0.001    0.760    0.760
 mp_alltoall_i22                   3606 11.7    0.619    0.712    0.619    0.712
 pw_poisson_rebuild                 284  9.8    0.000    0.000    0.619    0.637
 ps_wavelet_create                    1 10.0    0.000    0.000    0.619    0.636
 RS_z_slice_distribution              1 11.0    0.520    0.595    0.619    0.636
 powell_optimize                 239409 11.0    0.598    0.620    0.598    0.620
 hybrid_alltoall_any               6971 13.6    0.060    0.065    0.592    0.617
 qs_ot_get_orbitals                 172  8.0    0.001    0.001    0.608    0.611
 calculate_rho_atom_coeff           286  7.6    0.023    0.054    0.601    0.603
 offload_free_buffer                292  9.6    0.061    0.591    0.061    0.591
 integrate_four_center_dist_KS      396 10.6    0.110    0.130    0.580    0.583
 integrate_four_center_getP         396 10.6    0.111    0.123    0.564    0.578
 make_images_sizes                 6040 12.9    0.006    0.007    0.551    0.571
 mp_alltoall_i44                   6040 13.9    0.545    0.565    0.545    0.565
 cp_fm_redistribute_end             220 11.2    0.342    0.547    0.349    0.556
 tddfpt_compute_residual_vects        5  7.0    0.000    0.001    0.528    0.528
 tddfpt_print_nto_analysis            1  6.0    0.002    0.003    0.505    0.505
 multiply_cannon_metrocomm4       69460 12.9    0.210    0.240    0.405    0.479
 scale_and_distribute               568 10.8    0.388    0.474    0.388    0.474
 calc_pair_dist_radii                 1 10.0    0.178    0.191    0.454    0.468
 xz_to_yz                           572 12.6    0.035    0.046    0.448    0.456
 yz_to_xz                           340 14.0    0.032    0.037    0.383    0.428
 fft_wrap_pw1pw2_10                 456 11.1    0.005    0.005    0.414    0.422
 cp_fm_syevd_base                   220 11.2    0.203    0.408    0.203    0.408
 multiply_cannon_metrocomm2       63420 12.9    0.190    0.209    0.351    0.403
 mp_rank_compare                   4669 13.6    0.317    0.327    0.317    0.327
 calculate_dm_sparse                173  7.0    0.000    0.001    0.320    0.323
 prepare_dr1dr                      560 11.0    0.181    0.290    0.181    0.290
 tddfpt_construct_ground_state_       1  6.0    0.000    0.000    0.278    0.281
 init_scf_run                         1  3.0    0.000    0.000    0.269    0.269
 scf_env_initial_rho_setup            1  4.0    0.000    0.000    0.269    0.269
 parallel_gemm_fm                   960  8.3    0.001    0.001    0.237    0.244
 parallel_gemm_fm_gemm              960  9.3    0.001    0.001    0.236    0.243
 cp_fm_gemm                         960 10.3    0.234    0.242    0.234    0.242
 cp_fm_redistribute_start           220 11.2    0.178    0.183    0.225    0.229
 dbcsr_make_images_dense           4128 11.9    0.057    0.061    0.156    0.224
 dbcsr_finalize                    7498 11.3    0.037    0.046    0.173    0.222
 dbcsr_create_new                 53414 12.3    0.161    0.168    0.213    0.221
 rs_scatter_matrices                286  8.6    0.002    0.005    0.202    0.209
 make_images_data                  6040 12.9    0.067    0.089    0.142    0.204
 mp_irecv_dv                     205364 13.3    0.152    0.204    0.152    0.204
 multiply_cannon_metrocomm1       72480 12.9    0.079    0.083    0.147    0.204
 mp_cart_sub                       1864 11.7    0.194    0.195    0.194    0.195
 xc_2nd_deriv_of_r                  448 10.0    0.000    0.033    0.001    0.192
 mp_allgather_i34                  3020 11.9    0.171    0.185    0.171    0.185
 vxc_of_r_new                       688  9.0    0.000    0.015    0.001    0.182
 arnoldi_extremal                   173  9.0    0.003    0.004    0.172    0.177
 arnoldi_normal_ev                  174 10.0    0.003    0.004    0.170    0.175
 dbcsr_make_dense_low              9921 12.8    0.050    0.052    0.074    0.165
 qs_init_subsys                       1  2.0    0.004    0.004    0.159    0.160
 cp_fm_trace_a1b1t1_aa             6538  8.0    0.031    0.034    0.158    0.159
 update_ks_atom                     284  8.4    0.018    0.035    0.085    0.157
 qs_env_setup                         1  3.0    0.000    0.000    0.151    0.151
 create_kernel_env                    1  6.0    0.000    0.000    0.130    0.151
 xc_prep_2nd_deriv                    1  7.0    0.000    0.000    0.130    0.151
 qs_env_rebuild_pw_env                2  3.5    0.000    0.000    0.150    0.151
 pw_env_rebuild                       1  5.0    0.001    0.001    0.150    0.150
 mp_bcast_dm                       1311  9.7    0.074    0.146    0.074    0.146
 cp_fm_geeig                         20  7.0    0.001    0.001    0.143    0.143
 mp_cart_create                    1503 10.8    0.130    0.139    0.132    0.141
 pw_grid_setup                        4  6.0    0.000    0.000    0.138    0.139
 pw_grid_setup_internal               4  7.0    0.004    0.006    0.138    0.139
 mp_isend_iv                     146654 13.9    0.112    0.132    0.112    0.132
 multiply_cannon_multrec          72480 12.9    0.092    0.119    0.104    0.131
 dbcsr_merge_all                   6469 12.3    0.078    0.096    0.096    0.127
 cube_transpose_2                   572 12.6    0.011    0.013    0.116    0.126
 dbcsr_destroy                    51986 11.5    0.067    0.072    0.093    0.125
 create_qs_kind_set                   1  2.0    0.000    0.000    0.123    0.123
 read_qs_kind                         2  3.0    0.057    0.059    0.123    0.123
 qs_energies_init_hamiltonians        1  3.0    0.000    0.000    0.122    0.122
 dbcsr_special_finalize           12080 12.9    0.030    0.031    0.097    0.116
 build_core_hamiltonian_matrix        1  4.0    0.000    0.000    0.113    0.113
 overlap_condnum                      1  5.0    0.000    0.000    0.111    0.111
 build_subspace                     174 11.0    0.006    0.007    0.108    0.109
 ot_new_cg_direction                 58  9.0    0.001    0.001    0.108    0.109
 dbcsr_new_transposed              1317 10.8    0.007    0.008    0.102    0.107
 dbcsr_iterator_start             46654 12.5    0.048    0.087    0.058    0.106
 dbcsr_data_release              257314 13.1    0.071    0.102    0.071    0.102
 pw_scale                           456  9.5    0.083    0.100    0.083    0.100
 apply_preconditioner_dbcsr          59 10.0    0.000    0.000    0.095    0.100
 apply_single                        59 11.0    0.000    0.000    0.095    0.099
 calculate_rho0_atom                570  9.4    0.093    0.096    0.093    0.096
 dbcsr_matrix_vector_mult          1160 12.0    0.011    0.011    0.057    0.094
 make_dense_data                   9921 13.8    0.004    0.038    0.004    0.090
 dbcsr_redistribute                  57 12.0    0.002    0.002    0.080    0.085
 integrate_four_center_load         396 10.6    0.001    0.002    0.061    0.085
 rs_grid_create                     290  9.7    0.001    0.002    0.017    0.084
 hfx_load_balance                     1 11.0    0.000    0.000    0.060    0.084
 offload_create_buffer              292 10.7    0.016    0.083    0.016    0.083
 pw_grid_sort                         4  8.0    0.049    0.051    0.076    0.078
 dbcsr_data_new                  155464 12.9    0.061    0.076    0.061    0.076
 mp_irecv_iv                     144956 13.9    0.063    0.073    0.063    0.073
 hfx_load_balance_range               1 12.0    0.000    0.000    0.049    0.072
 tddfpt_compute_ritz_vects            6  7.0    0.003    0.003    0.072    0.072
 mp_sum_b                          4129 10.9    0.070    0.071    0.070    0.071
 parser_read_line                 10561  4.0    0.004    0.004    0.066    0.068
 mp_cart_rank                    218528 10.3    0.058    0.067    0.058    0.067
 dbcsr_iterator_stop              46654 12.5    0.034    0.057    0.043    0.067
 cube_transpose_1                   340 14.0    0.006    0.007    0.061    0.067
 parser_read_line_low                16  5.0    0.010    0.027    0.062    0.065
 dbcsr_make_dense                  1665 11.1    0.007    0.007    0.036    0.062
 dbcsr_work_create                19537 12.4    0.039    0.042    0.054    0.062
 setup_buffer_matrices             6040 11.9    0.019    0.020    0.055    0.058
 copy_fm_to_dbcsr_bc               1686 10.8    0.018    0.021    0.050    0.058
 broadcast_input_information         16  6.0    0.019    0.021    0.052    0.054
 dbcsr_work_destroy_all           19537 13.4    0.035    0.038    0.047    0.053
 scf_post_calculation_gpw             1  3.0    0.000    0.000    0.052    0.053
 write_available_results              1  4.0    0.000    0.000    0.052    0.052
 write_mo_free_results                1  5.0    0.003    0.005    0.052    0.052
 tddfpt_orthogonalize_psi1_psi0       7  6.9    0.000    0.000    0.047    0.052
 dbcsr_make_undense                1665 11.1    0.011    0.021    0.021    0.046
 quick_finalize                    9003 13.9    0.020    0.026    0.033    0.045
 dbcsr_add_d                        716  9.3    0.001    0.001    0.005    0.045
 dbcsr_mm_multrec_init             3020 11.9    0.005    0.006    0.040    0.044
 dbcsr_add_anytype                  716 10.3    0.001    0.007    0.004    0.044
 arnoldi_init                       174 11.0    0.002    0.002    0.039    0.044
 write_mo_set_to_restart            172  5.0    0.003    0.012    0.042    0.043
 mp_maxloc_dv                      1337  1.0    0.038    0.043    0.038    0.043
 dbcsr_col_vec_to_rep_row          1389 12.4    0.010    0.010    0.020    0.041
 dbcsr_copy                        5145 10.1    0.016    0.017    0.039    0.040
 calculate_first_density_matrix       1  5.0    0.000    0.004    0.039    0.040
 dbcsr_dot                          577  8.7    0.003    0.004    0.036    0.039
 mp_sum_iv                         1160  9.7    0.031    0.039    0.031    0.039
 dbcsr_mm_csr_init                 3020 12.9    0.027    0.031    0.034    0.038
 dbcsr_make_untransposed_blocks    4041 10.9    0.022    0.024    0.036    0.038
 arnoldi_conjugate_gradient           5  6.0    0.001    0.001    0.037    0.037
 dbcsr_sym_matrix_vector_mult       229  8.2    0.004    0.004    0.023    0.036
 Gram_Schmidt_ortho                1031 11.9    0.001    0.002    0.026    0.034
 prepare_preconditioner               1  5.0    0.000    0.000    0.034    0.034
 make_preconditioner                  1  6.0    0.000    0.000    0.034    0.034
 dbcsr_switch_data_area           24559 13.7    0.023    0.024    0.031    0.033
 dbcsr_make_index_exist           53414 13.3    0.030    0.033    0.030    0.033
 dbcsr_merge_single_wm             4065 13.7    0.020    0.023    0.023    0.032
 mp_comm_split                      220 12.2    0.029    0.030    0.029    0.030
 make_images_pack                  6040 12.9    0.012    0.013    0.027    0.030
 pw_pool_create_pw                 8556 10.2    0.019    0.022    0.025    0.030
 sort_shells                          4  9.0    0.027    0.028    0.027    0.028
 dbcsr_make_dists_dense            2064 10.9    0.021    0.022    0.027    0.028
 mp_bcast_dv                       1609 13.2    0.009    0.027    0.009    0.027
 setup_rec_index_2d                6040 11.9    0.026    0.027    0.026    0.027
 -------------------------------------------------------------------------------

 The number of warnings for this run is : 2
 
 -------------------------------------------------------------------------------
  **** **** ******  **  PROGRAM ENDED AT                 2025-04-20 13:53:12.494
 ***** ** ***  *** **   PROGRAM RAN ON                              i05r11c03s07
 **    ****   ******    PROGRAM RAN BY                                   di38fab
 ***** **    ** ** **   PROGRAM PROCESS ID                               3589061
  **** **  *******  **  PROGRAM STOPPED IN /hppfs/scratch/04/di38fab/05_MOL/W4-1
                                           1+ALK/co/SZV/TDDFT/1e-4
