 DBCSR| CPU Multiplication driver                                           BLAS (U)
 DBCSR| Multrec recursion limit                                              512 (U)
 DBCSR| Multiplication stack size                                           1000 (D)
 DBCSR| Maximum elements for images                                    UNLIMITED (U)
 DBCSR| Multiplicative factor virtual images                                   1 (U)
 DBCSR| Use multiplication densification                                       T (D)
 DBCSR| Multiplication size stacks                                             3 (U)
 DBCSR| Use memory pool for CPU allocation                                     F (U)
 DBCSR| Number of 3D layers                                               SINGLE (U)
 DBCSR| Use MPI memory allocation                                              F (U)
 DBCSR| Use RMA algorithm                                                      F (U)
 DBCSR| Use Communication thread                                               T (U)
 DBCSR| Communication thread load                                             75 (D)
 DBCSR| MPI: My process id                                                     0
 DBCSR| MPI: Number of processes                                              48
 DBCSR| OMP: Current number of threads                                         4
 DBCSR| OMP: Max number of threads                                             4
 DBCSR| Split modifier for TAS multiplication algorithm                  1.0E+00 (U)


  **** **** ******  **  PROGRAM STARTED AT               2025-03-19 00:32:11.381
 ***** ** ***  *** **   PROGRAM STARTED ON                          i03r01c04s02
 **    ****   ******    PROGRAM STARTED BY                               di38fab
 ***** **    ** ** **   PROGRAM PROCESS ID                               2696910
  **** **  *******  **  PROGRAM STARTED IN /hppfs/scratch/04/di38fab/05_MOL/W4-1
                                           1+ALK/c-hcoh/aug-cc-pV5Z/GW+BSE

 CP2K| version string:                 CP2K version 2025.1 (Development Version)
 CP2K| source code revision number:                                  git:d2e611a
 CP2K| cp2kflags: omp libint fftw3 libxc parallel scalapack max_contr=4         
 CP2K| is freely available from                            https://www.cp2k.org/
 CP2K| Program compiled at                       Thu 06 Mar 2025 05:09:20 PM CET
 CP2K| Program compiled on                                               login02
 CP2K| Program compiled for                                        Supermuc-foss
 CP2K| Data directory path                  /hppfs/work/pn36zo/di38fab/cp2k/data
 CP2K| Input file name                                                    GW.inp

 GLOBAL| Force Environment number                                              1
 GLOBAL| Basis set file name            /hppfs/scratch/04/di38fab/04_TMD/BASIS_A
 GLOBAL| Potential file name            /hppfs/work/pn36zo/di38fab/cp2k/data/ALL
 GLOBAL| MM Potential file name                                     MM_POTENTIAL
 GLOBAL| Coordinate file name                                      __STD_INPUT__
 GLOBAL| Method name                                                        CP2K
 GLOBAL| Project name                                                       MoS2
 GLOBAL| Run type                                                         ENERGY
 GLOBAL| FFT library                                                       FFTW3
 GLOBAL| Diagonalization library                                       ScaLAPACK
 GLOBAL| DGEMM library                                                      BLAS
 GLOBAL| Orthonormality check for eigenvectors                          DISABLED
 GLOBAL| Matrix multiplication library                                 ScaLAPACK
 GLOBAL| All-to-all communication in single precision                          F
 GLOBAL| FFTs using library dependent lengths                                  F
 GLOBAL| Grid backend                                                       AUTO
 GLOBAL| Global print level                                               MEDIUM
 GLOBAL| MPI I/O enabled                                                       T
 GLOBAL| Total number of message passing processes                            48
 GLOBAL| Number of threads for this process                                    4
 GLOBAL| This output is from process                                           0
 GLOBAL| OpenMP stack size per thread (OMP_STACKSIZE)                    default
 GLOBAL| CPU model name             Intel(R) Xeon(R) Platinum 8174 CPU @ 3.10GHz

 MEMORY| system memory details [Kb]
 MEMORY|                        rank 0           min           max       average
 MEMORY| MemTotal             98436664      98436664      98436664      98436664
 MEMORY| MemFree              83939376      83632188      83967024      83870910
 MEMORY| Buffers                     0             0             0             0
 MEMORY| Cached                2406904       2406444       2414608       2408807
 MEMORY| Slab                  1233584       1230756       1240348       1234970
 MEMORY| SReclaimable           265504        265104        275948        268606
 MEMORY| MemLikelyFree        86611784      86307328      86646736      86548323


 *** Fundamental physical constants (SI units) ***

 *** Literature: B. J. Mohr and B. N. Taylor,
 ***             CODATA recommended values of the fundamental physical
 ***             constants: 2006, Web Version 5.1
 ***             http://physics.nist.gov/constants

 Speed of light in vacuum [m/s]                             2.99792458000000E+08
 Magnetic constant or permeability of vacuum [N/A**2]       1.25663706143592E-06
 Electric constant or permittivity of vacuum [F/m]          8.85418781762039E-12
 Planck constant (h) [J*s]                                  6.62606896000000E-34
 Planck constant (h-bar) [J*s]                              1.05457162825177E-34
 Elementary charge [C]                                      1.60217648700000E-19
 Electron mass [kg]                                         9.10938215000000E-31
 Electron g factor [ ]                                     -2.00231930436220E+00
 Proton mass [kg]                                           1.67262163700000E-27
 Fine-structure constant                                    7.29735253760000E-03
 Rydberg constant [1/m]                                     1.09737315685270E+07
 Avogadro constant [1/mol]                                  6.02214179000000E+23
 Boltzmann constant [J/K]                                   1.38065040000000E-23
 Atomic mass unit [kg]                                      1.66053878200000E-27
 Bohr radius [m]                                            5.29177208590000E-11

 *** Conversion factors ***

 [u] -> [a.u.]                                              1.82288848426455E+03
 [Angstrom] -> [Bohr] = [a.u.]                              1.88972613288564E+00
 [a.u.] = [Bohr] -> [Angstrom]                              5.29177208590000E-01
 [a.u.] -> [s]                                              2.41888432650478E-17
 [a.u.] -> [fs]                                             2.41888432650478E-02
 [a.u.] -> [J]                                              4.35974393937059E-18
 [a.u.] -> [N]                                              8.23872205491840E-08
 [a.u.] -> [K]                                              3.15774647902944E+05
 [a.u.] -> [kJ/mol]                                         2.62549961709828E+03
 [a.u.] -> [kcal/mol]                                       6.27509468713739E+02
 [a.u.] -> [Pa]                                             2.94210107994716E+13
 [a.u.] -> [bar]                                            2.94210107994716E+08
 [a.u.] -> [atm]                                            2.90362800883016E+08
 [a.u.] -> [eV]                                             2.72113838565563E+01
 [a.u.] -> [Hz]                                             6.57968392072181E+15
 [a.u.] -> [1/cm] (wave numbers)                            2.19474631370540E+05
 [a.u./Bohr**2] -> [1/cm]                                   5.14048714338585E+03
 

 CELL_TOP| Volume [angstrom^3]:                                     27000.000000
 CELL_TOP| Vector a [angstrom    30.000     0.000     0.000   |a| =    30.000000
 CELL_TOP| Vector b [angstrom     0.000    30.000     0.000   |b| =    30.000000
 CELL_TOP| Vector c [angstrom     0.000     0.000    30.000   |c| =    30.000000
 CELL_TOP| Angle (b,c), alpha [degree]:                                90.000000
 CELL_TOP| Angle (a,c), beta  [degree]:                                90.000000
 CELL_TOP| Angle (a,b), gamma [degree]:                                90.000000
 CELL_TOP| Numerically orthorhombic:                                         YES
 CELL_TOP| Periodicity                                                      NONE

 GENERATE|  Preliminary Number of Bonds generated:                             0
 GENERATE|  Achieved consistency in connectivity generation.

 CELL| Volume [angstrom^3]:                                         27000.000000
 CELL| Vector a [angstrom]:      30.000     0.000     0.000   |a| =    30.000000
 CELL| Vector b [angstrom]:       0.000    30.000     0.000   |b| =    30.000000
 CELL| Vector c [angstrom]:       0.000     0.000    30.000   |c| =    30.000000
 CELL| Angle (b,c), alpha [degree]:                                    90.000000
 CELL| Angle (a,c), beta  [degree]:                                    90.000000
 CELL| Angle (a,b), gamma [degree]:                                    90.000000
 CELL| Numerically orthorhombic:                                             YES
 CELL| Periodicity                                                          NONE

 CELL_REF| Volume [angstrom^3]:                                     27000.000000
 CELL_REF| Vector a [angstrom    30.000     0.000     0.000   |a| =    30.000000
 CELL_REF| Vector b [angstrom     0.000    30.000     0.000   |b| =    30.000000
 CELL_REF| Vector c [angstrom     0.000     0.000    30.000   |c| =    30.000000
 CELL_REF| Angle (b,c), alpha [degree]:                                90.000000
 CELL_REF| Angle (a,c), beta  [degree]:                                90.000000
 CELL_REF| Angle (a,b), gamma [degree]:                                90.000000
 CELL_REF| Numerically orthorhombic:                                         YES
 CELL_REF| Periodicity                                                      NONE

 *******************************************************************************
 *******************************************************************************
 **                                                                           **
 **     #####                         ##              ##                      **
 **    ##   ##            ##          ##              ##                      **
 **   ##     ##                       ##            ######                    **
 **   ##     ##  ##   ##  ##   #####  ##  ##   ####   ##    #####    #####    **
 **   ##     ##  ##   ##  ##  ##      ## ##   ##      ##   ##   ##  ##   ##   **
 **   ##  ## ##  ##   ##  ##  ##      ####     ###    ##   ######   ######    **
 **    ##  ###   ##   ##  ##  ##      ## ##      ##   ##   ##       ##        **
 **     #######   #####   ##   #####  ##  ##  ####    ##    #####   ##        **
 **           ##                                                    ##        **
 **                                                                           **
 **                                                ... make the atoms dance   **
 **                                                                           **
 **            Copyright (C) by CP2K developers group (2000-2025)             **
 **                      J. Chem. Phys. 152, 194103 (2020)                    **
 **                                                                           **
 *******************************************************************************

 DFT| Spin restricted Kohn-Sham (RKS) calculation                            RKS
 DFT| Multiplicity                                                             1
 DFT| Number of spin states                                                    1
 DFT| Charge                                                                   0
 DFT| Self-interaction correction (SIC)                                       NO
 DFT| Cutoffs: density                                              1.000000E-10
 DFT|          gradient                                             1.000000E-10
 DFT|          tau                                                  1.000000E-10
 DFT|          cutoff_smoothing_range                               0.000000E+00
 DFT| XC density smoothing                                                  NONE
 DFT| XC derivatives                                                          PW

 FUNCTIONAL| PBE:
 FUNCTIONAL| J.P.Perdew, K.Burke, M.Ernzerhof, Phys. Rev. Letter, vol. 77, n 18,
 FUNCTIONAL|  pp. 3865-3868, (1996)sx=0.750sc=1.000{spin unpolarized}           


 QS| Method:                                                                GAPW
 QS| Density plane wave grid type                        NON-SPHERICAL FULLSPACE
 QS| Number of grid levels:                                                    4
 QS| Density cutoff [a.u.]:                                                250.0
 QS| Multi grid cutoff [a.u.]: 1) grid level                               250.0
 QS|                           2) grid level                                83.3
 QS|                           3) grid level                                27.8
 QS|                           4) grid level                                 9.3
 QS| Grid level progression factor:                                          3.0
 QS| Relative density cutoff [a.u.]:                                        50.0
 QS| Interaction thresholds: eps_pgf_orb:                                1.0E-12
 QS|                         eps_filter_matrix:                          0.0E+00
 QS|                         eps_core_charge:                            1.0E-14
 QS|                         eps_rho_gspace:                             1.0E-12
 QS|                         eps_rho_rspace:                             1.0E-12
 QS|                         eps_gvg_rspace:                             1.0E-06
 QS|                         eps_ppl:                                    1.0E-02
 QS|                         eps_ppnl:                                   1.0E-08
 QS| GAPW|      One center basis from orbital basis primitives
 QS| GAPW|                   eps_fit:                                    1.0E-04
 QS| GAPW|                   eps_iso:                                    1.0E-12
 QS| GAPW|                   eps_svd:                                    1.0E-08
 QS| GAPW|                   eps_cpc:                                    1.0E-12
 QS| GAPW|   atom-r-grid: quadrature:                                     GC_LOG
 QS| GAPW|      atom-s-grid:  max l :                                         10
 QS| GAPW|      max_l_rho0 :                                                   2


 ATOMIC KIND INFORMATION

  1. Atomic kind: C                                     Number of atoms:       1

     Orbital Basis Set                                               aug-cc-pV5Z

       Number of orbital shell sets:                                          12
       Number of orbital shells:                                              27
       Number of primitive Cartesian functions:                               38
       Number of Cartesian basis functions:                                  182
       Number of spherical basis functions:                                  127
       Norm type:                                                              2

       Normalised Cartesian orbitals:

                        Set   Shell   Orbital            Exponent    Coefficient

                          1       1    1px               0.027200       0.015745
                          1       1    1py               0.027200       0.015745
                          1       1    1pz               0.027200       0.015745

                          2       1    1s                0.039400       0.063028

                          3       1    1dx2              0.070100       0.015719
                          3       1    1dxy              0.070100       0.027226
                          3       1    1dxz              0.070100       0.027226
                          3       1    1dy2              0.070100       0.015719
                          3       1    1dyz              0.070100       0.027226
                          3       1    1dz2              0.070100       0.015719

                          4       1    1px             101.800000       0.000000
                                                        24.040000       0.000000
                                                         7.571000       0.000000
                                                         2.732000       0.000000
                                                         1.085000       1.578437
                                                         0.449600       0.000000
                                                         0.187600       0.000000
                                                         0.076060       0.000000
                          4       1    1py             101.800000       0.000000
                                                        24.040000       0.000000
                                                         7.571000       0.000000
                                                         2.732000       0.000000
                                                         1.085000       1.578437
                                                         0.449600       0.000000
                                                         0.187600       0.000000
                                                         0.076060       0.000000
                          4       1    1pz             101.800000       0.000000
                                                        24.040000       0.000000
                                                         7.571000       0.000000
                                                         2.732000       0.000000
                                                         1.085000       1.578437
                                                         0.449600       0.000000
                                                         0.187600       0.000000
                                                         0.076060       0.000000

                          4       2    2px             101.800000       0.000000
                                                        24.040000       0.000000
                                                         7.571000       0.000000
                                                         2.732000       0.000000
                                                         1.085000       0.000000
                                                         0.449600       0.524775
                                                         0.187600       0.000000
                                                         0.076060       0.000000
                          4       2    2py             101.800000       0.000000
                                                        24.040000       0.000000
                                                         7.571000       0.000000
                                                         2.732000       0.000000
                                                         1.085000       0.000000
                                                         0.449600       0.524775
                                                         0.187600       0.000000
                                                         0.076060       0.000000
                          4       2    2pz             101.800000       0.000000
                                                        24.040000       0.000000
                                                         7.571000       0.000000
                                                         2.732000       0.000000
                                                         1.085000       0.000000
                                                         0.449600       0.524775
                                                         0.187600       0.000000
                                                         0.076060       0.000000

                          4       3    3px             101.800000       0.410679
                                                        24.040000       0.529315
                                                         7.571000       0.566912
                                                         2.732000       0.520714
                                                         1.085000       0.381402
                                                         0.449600       0.195188
                                                         0.187600       0.062335
                                                         0.076060       0.007491
                          4       3    3py             101.800000       0.410679
                                                        24.040000       0.529315
                                                         7.571000       0.566912
                                                         2.732000       0.520714
                                                         1.085000       0.381402
                                                         0.449600       0.195188
                                                         0.187600       0.062335
                                                         0.076060       0.007491
                          4       3    3pz             101.800000       0.410679
                                                        24.040000       0.529315
                                                         7.571000       0.566912
                                                         2.732000       0.520714
                                                         1.085000       0.381402
                                                         0.449600       0.195188
                                                         0.187600       0.062335
                                                         0.076060       0.007491

                          4       4    4px             101.800000       0.000000
                                                        24.040000       0.000000
                                                         7.571000       0.000000
                                                         2.732000       0.000000
                                                         1.085000       0.000000
                                                         0.449600       0.000000
                                                         0.187600       0.175987
                                                         0.076060       0.000000
                          4       4    4py             101.800000       0.000000
                                                        24.040000       0.000000
                                                         7.571000       0.000000
                                                         2.732000       0.000000
                                                         1.085000       0.000000
                                                         0.449600       0.000000
                                                         0.187600       0.175987
                                                         0.076060       0.000000
                          4       4    4pz             101.800000       0.000000
                                                        24.040000       0.000000
                                                         7.571000       0.000000
                                                         2.732000       0.000000
                                                         1.085000       0.000000
                                                         0.449600       0.000000
                                                         0.187600       0.175987
                                                         0.076060       0.000000

                          4       5    5px             101.800000       0.000000
                                                        24.040000       0.000000
                                                         7.571000       0.000000
                                                         2.732000       0.000000
                                                         1.085000       0.000000
                                                         0.449600       0.000000
                                                         0.187600       0.000000
                                                         0.076060       0.056936
                          4       5    5py             101.800000       0.000000
                                                        24.040000       0.000000
                                                         7.571000       0.000000
                                                         2.732000       0.000000
                                                         1.085000       0.000000
                                                         0.449600       0.000000
                                                         0.187600       0.000000
                                                         0.076060       0.056936
                          4       5    5pz             101.800000       0.000000
                                                        24.040000       0.000000
                                                         7.571000       0.000000
                                                         2.732000       0.000000
                                                         1.085000       0.000000
                                                         0.449600       0.000000
                                                         0.187600       0.000000
                                                         0.076060       0.056936

                          5       1    1s            96770.000000       0.097759
                                                     14500.000000       0.178933
                                                      3300.000000       0.310310
                                                       935.800000       0.504412
                                                       306.200000       0.775182
                                                       111.300000       1.106343
                                                        43.900000       1.416119
                                                        18.400000       1.521197
                                                         8.054000       1.222561
                                                         3.637000       0.551732
                                                         1.656000       0.080804
                                                         0.633300       0.001180
                                                         0.254500       0.000129
                                                         0.101900       0.000004

                          5       2    2s            96770.000000       0.000000
                                                     14500.000000       0.000000
                                                      3300.000000       0.000000
                                                       935.800000       0.000000
                                                       306.200000       0.000000
                                                       111.300000       0.000000
                                                        43.900000       0.000000
                                                        18.400000       0.000000
                                                         8.054000       0.000000
                                                         3.637000       0.000000
                                                         1.656000       1.040412
                                                         0.633300       0.000000
                                                         0.254500       0.000000
                                                         0.101900       0.000000

                          5       3    3s            96770.000000       0.000000
                                                     14500.000000       0.000000
                                                      3300.000000       0.000000
                                                       935.800000       0.000000
                                                       306.200000       0.000000
                                                       111.300000       0.000000
                                                        43.900000       0.000000
                                                        18.400000       0.000000
                                                         8.054000       0.000000
                                                         3.637000       0.000000
                                                         1.656000       0.000000
                                                         0.633300       0.505961
                                                         0.254500       0.000000
                                                         0.101900       0.000000

                          5       4    4s            96770.000000       0.000000
                                                     14500.000000       0.000000
                                                      3300.000000       0.000000
                                                       935.800000       0.000000
                                                       306.200000       0.000000
                                                       111.300000       0.000000
                                                        43.900000       0.000000
                                                        18.400000       0.000000
                                                         8.054000       0.000000
                                                         3.637000       0.000000
                                                         1.656000       0.000000
                                                         0.633300       0.000000
                                                         0.254500       0.255374
                                                         0.101900       0.000000

                          5       5    5s            96770.000000      -0.019552
                                                     14500.000000      -0.038612
                                                      3300.000000      -0.066096
                                                       935.800000      -0.108166
                                                       306.200000      -0.166263
                                                       111.300000      -0.243268
                                                        43.900000      -0.320591
                                                        18.400000      -0.379911
                                                         8.054000      -0.363992
                                                         3.637000      -0.270602
                                                         1.656000      -0.025640
                                                         0.633300       0.176585
                                                         0.254500       0.142687
                                                         0.101900       0.029320

                          5       6    6s            96770.000000       0.000000
                                                     14500.000000       0.000000
                                                      3300.000000       0.000000
                                                       935.800000       0.000000
                                                       306.200000       0.000000
                                                       111.300000       0.000000
                                                        43.900000       0.000000
                                                        18.400000       0.000000
                                                         8.054000       0.000000
                                                         3.637000       0.000000
                                                         1.656000       0.000000
                                                         0.633300       0.000000
                                                         0.254500       0.000000
                                                         0.101900       0.128541

                          6       1    1fx3              0.138000       0.017088
                          6       1    1fx2y             0.138000       0.038209
                          6       1    1fx2z             0.138000       0.038209
                          6       1    1fxy2             0.138000       0.038209
                          6       1    1fxyz             0.138000       0.066180
                          6       1    1fxz2             0.138000       0.038209
                          6       1    1fy3              0.138000       0.017088
                          6       1    1fy2z             0.138000       0.038209
                          6       1    1fyz2             0.138000       0.038209
                          6       1    1fz3              0.138000       0.017088

                          7       1    1dx2              3.134000      12.150179
                                                         1.233000       0.000000
                                                         0.485000       0.000000
                                                         0.191000       0.000000
                          7       1    1dxy              3.134000      21.044728
                                                         1.233000       0.000000
                                                         0.485000       0.000000
                                                         0.191000       0.000000
                          7       1    1dxz              3.134000      21.044728
                                                         1.233000       0.000000
                                                         0.485000       0.000000
                                                         0.191000       0.000000
                          7       1    1dy2              3.134000      12.150179
                                                         1.233000       0.000000
                                                         0.485000       0.000000
                                                         0.191000       0.000000
                          7       1    1dyz              3.134000      21.044728
                                                         1.233000       0.000000
                                                         0.485000       0.000000
                                                         0.191000       0.000000
                          7       1    1dz2              3.134000      12.150179
                                                         1.233000       0.000000
                                                         0.485000       0.000000
                                                         0.191000       0.000000

                          7       2    2dx2              3.134000       0.000000
                                                         1.233000       2.374624
                                                         0.485000       0.000000
                                                         0.191000       0.000000
                          7       2    2dxy              3.134000       0.000000
                                                         1.233000       4.112969
                                                         0.485000       0.000000
                                                         0.191000       0.000000
                          7       2    2dxz              3.134000       0.000000
                                                         1.233000       4.112969
                                                         0.485000       0.000000
                                                         0.191000       0.000000
                          7       2    2dy2              3.134000       0.000000
                                                         1.233000       2.374624
                                                         0.485000       0.000000
                                                         0.191000       0.000000
                          7       2    2dyz              3.134000       0.000000
                                                         1.233000       4.112969
                                                         0.485000       0.000000
                                                         0.191000       0.000000
                          7       2    2dz2              3.134000       0.000000
                                                         1.233000       2.374624
                                                         0.485000       0.000000
                                                         0.191000       0.000000

                          7       3    3dx2              3.134000       0.000000
                                                         1.233000       0.000000
                                                         0.485000       0.463935
                                                         0.191000       0.000000
                          7       3    3dxy              3.134000       0.000000
                                                         1.233000       0.000000
                                                         0.485000       0.803560
                                                         0.191000       0.000000
                          7       3    3dxz              3.134000       0.000000
                                                         1.233000       0.000000
                                                         0.485000       0.803560
                                                         0.191000       0.000000
                          7       3    3dy2              3.134000       0.000000
                                                         1.233000       0.000000
                                                         0.485000       0.463935
                                                         0.191000       0.000000
                          7       3    3dyz              3.134000       0.000000
                                                         1.233000       0.000000
                                                         0.485000       0.803560
                                                         0.191000       0.000000
                          7       3    3dz2              3.134000       0.000000
                                                         1.233000       0.000000
                                                         0.485000       0.463935
                                                         0.191000       0.000000

                          7       4    4dx2              3.134000       0.000000
                                                         1.233000       0.000000
                                                         0.485000       0.000000
                                                         0.191000       0.090828
                          7       4    4dxy              3.134000       0.000000
                                                         1.233000       0.000000
                                                         0.485000       0.000000
                                                         0.191000       0.157318
                          7       4    4dxz              3.134000       0.000000
                                                         1.233000       0.000000
                                                         0.485000       0.000000
                                                         0.191000       0.157318
                          7       4    4dy2              3.134000       0.000000
                                                         1.233000       0.000000
                                                         0.485000       0.000000
                                                         0.191000       0.090828
                          7       4    4dyz              3.134000       0.000000
                                                         1.233000       0.000000
                                                         0.485000       0.000000
                                                         0.191000       0.157318
                          7       4    4dz2              3.134000       0.000000
                                                         1.233000       0.000000
                                                         0.485000       0.000000
                                                         0.191000       0.090828

                          8       1    1gx4              0.319000       0.048068
                          8       1    1gx3y             0.319000       0.127177
                          8       1    1gx3z             0.319000       0.127177
                          8       1    1gx2y2            0.319000       0.164185
                          8       1    1gx2yz            0.319000       0.284377
                          8       1    1gx2z2            0.319000       0.164185
                          8       1    1gxy3             0.319000       0.127177
                          8       1    1gxy2z            0.319000       0.284377
                          8       1    1gxyz2            0.319000       0.284377
                          8       1    1gxz3             0.319000       0.127177
                          8       1    1gy4              0.319000       0.048068
                          8       1    1gy3z             0.319000       0.127177
                          8       1    1gy2z2            0.319000       0.164185
                          8       1    1gyz3             0.319000       0.127177
                          8       1    1gz4              0.319000       0.048068

                          9       1    1fx3              2.006000       7.050161
                                                         0.838000       0.000000
                                                         0.350000       0.000000
                          9       1    1fx2y             2.006000      15.764639
                                                         0.838000       0.000000
                                                         0.350000       0.000000
                          9       1    1fx2z             2.006000      15.764639
                                                         0.838000       0.000000
                                                         0.350000       0.000000
                          9       1    1fxy2             2.006000      15.764639
                                                         0.838000       0.000000
                                                         0.350000       0.000000
                          9       1    1fxyz             2.006000      27.305156
                                                         0.838000       0.000000
                                                         0.350000       0.000000
                          9       1    1fxz2             2.006000      15.764639
                                                         0.838000       0.000000
                                                         0.350000       0.000000
                          9       1    1fy3              2.006000       7.050161
                                                         0.838000       0.000000
                                                         0.350000       0.000000
                          9       1    1fy2z             2.006000      15.764639
                                                         0.838000       0.000000
                                                         0.350000       0.000000
                          9       1    1fyz2             2.006000      15.764639
                                                         0.838000       0.000000
                                                         0.350000       0.000000
                          9       1    1fz3              2.006000       7.050161
                                                         0.838000       0.000000
                                                         0.350000       0.000000

                          9       2    2fx3              2.006000       0.000000
                                                         0.838000       0.989130
                                                         0.350000       0.000000
                          9       2    2fx2y             2.006000       0.000000
                                                         0.838000       2.211763
                                                         0.350000       0.000000
                          9       2    2fx2z             2.006000       0.000000
                                                         0.838000       2.211763
                                                         0.350000       0.000000
                          9       2    2fxy2             2.006000       0.000000
                                                         0.838000       2.211763
                                                         0.350000       0.000000
                          9       2    2fxyz             2.006000       0.000000
                                                         0.838000       3.830885
                                                         0.350000       0.000000
                          9       2    2fxz2             2.006000       0.000000
                                                         0.838000       2.211763
                                                         0.350000       0.000000
                          9       2    2fy3              2.006000       0.000000
                                                         0.838000       0.989130
                                                         0.350000       0.000000
                          9       2    2fy2z             2.006000       0.000000
                                                         0.838000       2.211763
                                                         0.350000       0.000000
                          9       2    2fyz2             2.006000       0.000000
                                                         0.838000       2.211763
                                                         0.350000       0.000000
                          9       2    2fz3              2.006000       0.000000
                                                         0.838000       0.989130
                                                         0.350000       0.000000

                          9       3    3fx3              2.006000       0.000000
                                                         0.838000       0.000000
                                                         0.350000       0.138710
                          9       3    3fx2y             2.006000       0.000000
                                                         0.838000       0.000000
                                                         0.350000       0.310165
                          9       3    3fx2z             2.006000       0.000000
                                                         0.838000       0.000000
                                                         0.350000       0.310165
                          9       3    3fxy2             2.006000       0.000000
                                                         0.838000       0.000000
                                                         0.350000       0.310165
                          9       3    3fxyz             2.006000       0.000000
                                                         0.838000       0.000000
                                                         0.350000       0.537221
                          9       3    3fxz2             2.006000       0.000000
                                                         0.838000       0.000000
                                                         0.350000       0.310165
                          9       3    3fy3              2.006000       0.000000
                                                         0.838000       0.000000
                                                         0.350000       0.138710
                          9       3    3fy2z             2.006000       0.000000
                                                         0.838000       0.000000
                                                         0.350000       0.310165
                          9       3    3fyz2             2.006000       0.000000
                                                         0.838000       0.000000
                                                         0.350000       0.310165
                          9       3    3fz3              2.006000       0.000000
                                                         0.838000       0.000000
                                                         0.350000       0.138710

                         10       1    1hx5              0.586000       0.130621
                         10       1    1hx4y             0.586000       0.391862
                         10       1    1hx4z             0.586000       0.391862
                         10       1    1hx3y2            0.586000       0.598578
                         10       1    1hx3yz            0.586000       1.036768
                         10       1    1hx3z2            0.586000       0.598578
                         10       1    1hx2y3            0.586000       0.598578
                         10       1    1hx2y2z           0.586000       1.338462
                         10       1    1hx2yz2           0.586000       1.338462
                         10       1    1hx2z3            0.586000       0.598578
                         10       1    1hxy4             0.586000       0.391862
                         10       1    1hxy3z            0.586000       1.036768
                         10       1    1hxy2z2           0.586000       1.338462
                         10       1    1hxyz3            0.586000       1.036768
                         10       1    1hxz4             0.586000       0.391862
                         10       1    1hy5              0.586000       0.130621
                         10       1    1hy4z             0.586000       0.391862
                         10       1    1hy3z2            0.586000       0.598578
                         10       1    1hy2z3            0.586000       0.598578
                         10       1    1hyz4             0.586000       0.391862
                         10       1    1hz5              0.586000       0.130621

                         11       1    1gx4              1.753000       5.209976
                                                         0.678000       0.000000
                         11       1    1gx3y             1.753000      13.784300
                                                         0.678000       0.000000
                         11       1    1gx3z             1.753000      13.784300
                                                         0.678000       0.000000
                         11       1    1gx2y2            1.753000      17.795455
                                                         0.678000       0.000000
                         11       1    1gx2yz            1.753000      30.822632
                                                         0.678000       0.000000
                         11       1    1gx2z2            1.753000      17.795455
                                                         0.678000       0.000000
                         11       1    1gxy3             1.753000      13.784300
                                                         0.678000       0.000000
                         11       1    1gxy2z            1.753000      30.822632
                                                         0.678000       0.000000
                         11       1    1gxyz2            1.753000      30.822632
                                                         0.678000       0.000000
                         11       1    1gxz3             1.753000      13.784300
                                                         0.678000       0.000000
                         11       1    1gy4              1.753000       5.209976
                                                         0.678000       0.000000
                         11       1    1gy3z             1.753000      13.784300
                                                         0.678000       0.000000
                         11       1    1gy2z2            1.753000      17.795455
                                                         0.678000       0.000000
                         11       1    1gyz3             1.753000      13.784300
                                                         0.678000       0.000000
                         11       1    1gz4              1.753000       5.209976
                                                         0.678000       0.000000

                         11       2    2gx4              1.753000       0.000000
                                                         0.678000       0.382223
                         11       2    2gx3y             1.753000       0.000000
                                                         0.678000       1.011268
                         11       2    2gx3z             1.753000       0.000000
                                                         0.678000       1.011268
                         11       2    2gx2y2            1.753000       0.000000
                                                         0.678000       1.305541
                         11       2    2gx2yz            1.753000       0.000000
                                                         0.678000       2.261263
                         11       2    2gx2z2            1.753000       0.000000
                                                         0.678000       1.305541
                         11       2    2gxy3             1.753000       0.000000
                                                         0.678000       1.011268
                         11       2    2gxy2z            1.753000       0.000000
                                                         0.678000       2.261263
                         11       2    2gxyz2            1.753000       0.000000
                                                         0.678000       2.261263
                         11       2    2gxz3             1.753000       0.000000
                                                         0.678000       1.011268
                         11       2    2gy4              1.753000       0.000000
                                                         0.678000       0.382223
                         11       2    2gy3z             1.753000       0.000000
                                                         0.678000       1.011268
                         11       2    2gy2z2            1.753000       0.000000
                                                         0.678000       1.305541
                         11       2    2gyz3             1.753000       0.000000
                                                         0.678000       1.011268
                         11       2    2gz4              1.753000       0.000000
                                                         0.678000       0.382223

                         12       1    1hx5              1.259000       1.568295
                         12       1    1hx4y             1.259000       4.704885
                         12       1    1hx4z             1.259000       4.704885
                         12       1    1hx3y2            1.259000       7.186831
                         12       1    1hx3yz            1.259000      12.447957
                         12       1    1hx3z2            1.259000       7.186831
                         12       1    1hx2y3            1.259000       7.186831
                         12       1    1hx2y2z           1.259000      16.070243
                         12       1    1hx2yz2           1.259000      16.070243
                         12       1    1hx2z3            1.259000       7.186831
                         12       1    1hxy4             1.259000       4.704885
                         12       1    1hxy3z            1.259000      12.447957
                         12       1    1hxy2z2           1.259000      16.070243
                         12       1    1hxyz3            1.259000      12.447957
                         12       1    1hxz4             1.259000       4.704885
                         12       1    1hy5              1.259000       1.568295
                         12       1    1hy4z             1.259000       4.704885
                         12       1    1hy3z2            1.259000       7.186831
                         12       1    1hy2z3            1.259000       7.186831
                         12       1    1hyz4             1.259000       4.704885
                         12       1    1hz5              1.259000       1.568295

     RI Auxiliary Basis Set                                    aug-cc-pV5Z-OPTRI

       Number of orbital shell sets:                                          22
       Number of orbital shells:                                              22
       Number of primitive Cartesian functions:                               22
       Number of Cartesian basis functions:                                  188
       Number of spherical basis functions:                                  122
       Norm type:                                                              2

       Normalised Cartesian orbitals:

                        Set   Shell   Orbital            Exponent    Coefficient

                          1       1    1gx4              0.114786       0.002892
                          1       1    1gx3y             0.114786       0.007650
                          1       1    1gx3z             0.114786       0.007650
                          1       1    1gx2y2            0.114786       0.009877
                          1       1    1gx2yz            0.114786       0.017107
                          1       1    1gx2z2            0.114786       0.009877
                          1       1    1gxy3             0.114786       0.007650
                          1       1    1gxy2z            0.114786       0.017107
                          1       1    1gxyz2            0.114786       0.017107
                          1       1    1gxz3             0.114786       0.007650
                          1       1    1gy4              0.114786       0.002892
                          1       1    1gy3z             0.114786       0.007650
                          1       1    1gy2z2            0.114786       0.009877
                          1       1    1gyz3             0.114786       0.007650
                          1       1    1gz4              0.114786       0.002892

                          2       1    1px               0.121920       0.102691
                          2       1    1py               0.121920       0.102691
                          2       1    1pz               0.121920       0.102691

                          3       1    1s                0.152658       0.174060

                          4       1    1px               0.299745       0.316140
                          4       1    1py               0.299745       0.316140
                          4       1    1pz               0.299745       0.316140

                          5       1    1s                0.384933       0.348296

                          6       1    1hx5              0.391317       0.035161
                          6       1    1hx4y             0.391317       0.105483
                          6       1    1hx4z             0.391317       0.105483
                          6       1    1hx3y2            0.391317       0.161128
                          6       1    1hx3yz            0.391317       0.279083
                          6       1    1hx3z2            0.391317       0.161128
                          6       1    1hx2y3            0.391317       0.161128
                          6       1    1hx2y2z           0.391317       0.360294
                          6       1    1hx2yz2           0.391317       0.360294
                          6       1    1hx2z3            0.391317       0.161128
                          6       1    1hxy4             0.391317       0.105483
                          6       1    1hxy3z            0.391317       0.279083
                          6       1    1hxy2z2           0.391317       0.360294
                          6       1    1hxyz3            0.391317       0.279083
                          6       1    1hxz4             0.391317       0.105483
                          6       1    1hy5              0.391317       0.035161
                          6       1    1hy4z             0.391317       0.105483
                          6       1    1hy3z2            0.391317       0.161128
                          6       1    1hy2z3            0.391317       0.161128
                          6       1    1hyz4             0.391317       0.105483
                          6       1    1hz5              0.391317       0.035161

                          7       1    1fx3              0.540840       0.369283
                          7       1    1fx2y             0.540840       0.825742
                          7       1    1fx2z             0.540840       0.825742
                          7       1    1fxy2             0.540840       0.825742
                          7       1    1fxyz             0.540840       1.430227
                          7       1    1fxz2             0.540840       0.825742
                          7       1    1fy3              0.540840       0.369283
                          7       1    1fy2z             0.540840       0.825742
                          7       1    1fyz2             0.540840       0.825742
                          7       1    1fz3              0.540840       0.369283

                          8       1    1px               0.678328       0.877485
                          8       1    1py               0.678328       0.877485
                          8       1    1pz               0.678328       0.877485

                          9       1    1dx2              0.754246       1.004748
                          9       1    1dxy              0.754246       1.740275
                          9       1    1dxz              0.754246       1.740275
                          9       1    1dy2              0.754246       1.004748
                          9       1    1dyz              0.754246       1.740275
                          9       1    1dz2              0.754246       1.004748

                         10       1    1gx4              1.012792       1.152434
                         10       1    1gx3y             1.012792       3.049054
                         10       1    1gx3z             1.012792       3.049054
                         10       1    1gx2y2            1.012792       3.936312
                         10       1    1gx2yz            1.012792       6.817893
                         10       1    1gx2z2            1.012792       3.936312
                         10       1    1gxy3             1.012792       3.049054
                         10       1    1gxy2z            1.012792       6.817893
                         10       1    1gxyz2            1.012792       6.817893
                         10       1    1gxz3             1.012792       3.049054
                         10       1    1gy4              1.012792       1.152434
                         10       1    1gy3z             1.012792       3.049054
                         10       1    1gy2z2            1.012792       3.936312
                         10       1    1gyz3             1.012792       3.049054
                         10       1    1gz4              1.012792       1.152434

                         11       1    1s                1.103587       0.767388

                         12       1    1ix6              1.245967       1.020534
                         12       1    1ix5y             1.245967       3.384727
                         12       1    1ix5z             1.245967       3.384727
                         12       1    1ix4y2            1.245967       5.862520
                         12       1    1ix4yz            1.245967      10.154182
                         12       1    1ix4z2            1.245967       5.862520
                         12       1    1ix3y3            1.245967       6.936627
                         12       1    1ix3y2z           1.245967      15.510769
                         12       1    1ix3yz2           1.245967      15.510769
                         12       1    1ix3z3            1.245967       6.936627
                         12       1    1ix2y4            1.245967       5.862520
                         12       1    1ix2y3z           1.245967      15.510769
                         12       1    1ix2y2z2          1.245967      20.024317
                         12       1    1ix2yz3           1.245967      15.510769
                         12       1    1ix2z4            1.245967       5.862520
                         12       1    1ixy5             1.245967       3.384727
                         12       1    1ixy4z            1.245967      10.154182
                         12       1    1ixy3z2           1.245967      15.510769
                         12       1    1ixy2z3           1.245967      15.510769
                         12       1    1ixyz4            1.245967      10.154182
                         12       1    1ixz5             1.245967       3.384727
                         12       1    1iy6              1.245967       1.020534
                         12       1    1iy5z             1.245967       3.384727
                         12       1    1iy4z2            1.245967       5.862520
                         12       1    1iy3z3            1.245967       6.936627
                         12       1    1iy2z4            1.245967       5.862520
                         12       1    1iyz5             1.245967       3.384727
                         12       1    1iz6              1.245967       1.020534

                         13       1    1fx3              1.255807       2.457712
                         13       1    1fx2y             1.255807       5.495611
                         13       1    1fx2z             1.255807       5.495611
                         13       1    1fxy2             1.255807       5.495611
                         13       1    1fxyz             1.255807       9.518677
                         13       1    1fxz2             1.255807       5.495611
                         13       1    1fy3              1.255807       2.457712
                         13       1    1fy2z             1.255807       5.495611
                         13       1    1fyz2             1.255807       5.495611
                         13       1    1fz3              1.255807       2.457712

                         14       1    1px               1.626163       2.617551
                         14       1    1py               1.626163       2.617551
                         14       1    1pz               1.626163       2.617551

                         15       1    1dx2              1.990505       5.490289
                         15       1    1dxy              1.990505       9.509459
                         15       1    1dxz              1.990505       9.509459
                         15       1    1dy2              1.990505       5.490289
                         15       1    1dyz              1.990505       9.509459
                         15       1    1dz2              1.990505       5.490289

                         16       1    1hx5              2.339630      11.750937
                         16       1    1hx4y             2.339630      35.252812
                         16       1    1hx4z             2.339630      35.252812
                         16       1    1hx3y2            2.339630      53.849559
                         16       1    1hx3yz            2.339630      93.270173
                         16       1    1hx3z2            2.339630      53.849559
                         16       1    1hx2y3            2.339630      53.849559
                         16       1    1hx2y2z           2.339630     120.411275
                         16       1    1hx2yz2           2.339630     120.411275
                         16       1    1hx2z3            2.339630      53.849559
                         16       1    1hxy4             2.339630      35.252812
                         16       1    1hxy3z            2.339630      93.270173
                         16       1    1hxy2z2           2.339630     120.411275
                         16       1    1hxyz3            2.339630      93.270173
                         16       1    1hxz4             2.339630      35.252812
                         16       1    1hy5              2.339630      11.750937
                         16       1    1hy4z             2.339630      35.252812
                         16       1    1hy3z2            2.339630      53.849559
                         16       1    1hy2z3            2.339630      53.849559
                         16       1    1hyz4             2.339630      35.252812
                         16       1    1hz5              2.339630      11.750937

                         17       1    1gx4              3.524920      35.570986
                         17       1    1gx3y             3.524920      94.111983
                         17       1    1gx3z             3.524920      94.111983
                         17       1    1gx2y2            3.524920     121.498047
                         17       1    1gx2yz            3.524920     210.440791
                         17       1    1gx2z2            3.524920     121.498047
                         17       1    1gxy3             3.524920      94.111983
                         17       1    1gxy2z            3.524920     210.440791
                         17       1    1gxyz2            3.524920     210.440791
                         17       1    1gxz3             3.524920      94.111983
                         17       1    1gy4              3.524920      35.570986
                         17       1    1gy3z             3.524920      94.111983
                         17       1    1gy2z2            3.524920     121.498047
                         17       1    1gyz3             3.524920      94.111983
                         17       1    1gz4              3.524920      35.570986

                         18       1    1px               4.160664       8.470195
                         18       1    1py               4.160664       8.470195
                         18       1    1pz               4.160664       8.470195

                         19       1    1s                4.500495       2.202193

                         20       1    1fx3              4.904034      52.686550
                         20       1    1fx2y             4.904034     117.810708
                         20       1    1fx2z             4.904034     117.810708
                         20       1    1fxy2             4.904034     117.810708
                         20       1    1fxyz             4.904034     204.054131
                         20       1    1fxz2             4.904034     117.810708
                         20       1    1fy3              4.904034      52.686550
                         20       1    1fy2z             4.904034     117.810708
                         20       1    1fyz2             4.904034     117.810708
                         20       1    1fz3              4.904034      52.686550

                         21       1    1dx2              5.244543      29.915609
                         21       1    1dxy              5.244543      51.815354
                         21       1    1dxz              5.244543      51.815354
                         21       1    1dy2              5.244543      29.915609
                         21       1    1dyz              5.244543      51.815354
                         21       1    1dz2              5.244543      29.915609

                         22       1    1dx2             10.138089      94.805303
                         22       1    1dxy             10.138089     164.207602
                         22       1    1dxz             10.138089     164.207602
                         22       1    1dy2             10.138089      94.805303
                         22       1    1dyz             10.138089     164.207602
                         22       1    1dz2             10.138089      94.805303

       Atomic covalent radius [Angstrom]:                                  0.770

       Atomic van der Waals radius [Angstrom]:                             1.700

     The atoms of this atomic kind are PAW atoms (GAPW):
       Hard Gaussian function radius:                                      1.512
       Rho0 radius:                                                        1.512
       Maximum GTO radius used for PAW projector construction:            24.566

     GAPW Soft Basis Set                                        aug-cc-pV5Z_soft

       Number of orbital shell sets:                                          12
       Number of orbital shells:                                              27
       Number of primitive Cartesian functions:                               26
       Number of Cartesian basis functions:                                  182
       Number of spherical basis functions:                                  127
       Norm type:                                                              2

       Normalised Cartesian orbitals:

                        Set   Shell   Orbital            Exponent    Coefficient

                          1       1    1px               0.027200       0.015745
                          1       1    1py               0.027200       0.015745
                          1       1    1pz               0.027200       0.015745

                          2       1    1s                0.039400       0.063028

                          3       1    1dx2              0.070100       0.015719
                          3       1    1dxy              0.070100       0.027226
                          3       1    1dxz              0.070100       0.027226
                          3       1    1dy2              0.070100       0.015719
                          3       1    1dyz              0.070100       0.027226
                          3       1    1dz2              0.070100       0.015719

                          4       1    1px               2.732000       0.000000
                                                         1.085000       1.578437
                                                         0.449600       0.000000
                                                         0.187600       0.000000
                                                         0.076060       0.000000
                          4       1    1py               2.732000       0.000000
                                                         1.085000       1.578437
                                                         0.449600       0.000000
                                                         0.187600       0.000000
                                                         0.076060       0.000000
                          4       1    1pz               2.732000       0.000000
                                                         1.085000       1.578437
                                                         0.449600       0.000000
                                                         0.187600       0.000000
                                                         0.076060       0.000000

                          4       2    2px               2.732000       0.000000
                                                         1.085000       0.000000
                                                         0.449600       0.524775
                                                         0.187600       0.000000
                                                         0.076060       0.000000
                          4       2    2py               2.732000       0.000000
                                                         1.085000       0.000000
                                                         0.449600       0.524775
                                                         0.187600       0.000000
                                                         0.076060       0.000000
                          4       2    2pz               2.732000       0.000000
                                                         1.085000       0.000000
                                                         0.449600       0.524775
                                                         0.187600       0.000000
                                                         0.076060       0.000000

                          4       3    3px               2.732000       0.520714
                                                         1.085000       0.381402
                                                         0.449600       0.195188
                                                         0.187600       0.062335
                                                         0.076060       0.007491
                          4       3    3py               2.732000       0.520714
                                                         1.085000       0.381402
                                                         0.449600       0.195188
                                                         0.187600       0.062335
                                                         0.076060       0.007491
                          4       3    3pz               2.732000       0.520714
[...]

 M. Del Ben, O. Schuett, T. Wentz, P. Messmer, J. Hutter, J. VandeVondele.
 Comput. Phys. Commun. 187, 120-129 (2015).
 Enabling simulation at the fifth rung of DFT: Large scale RPA calculations with 
 excellent time to solution.
 https://doi.org/10.1016/j.cpc.2014.10.021

 J. Hutter, M. Iannuzzi, F. Schiffmann, J. VandeVondele.
 WIREs Comput Mol Sci. 4, 15-25 (2014).
 CP2K: atomistic simulations of condensed matter systems.
 https://doi.org/10.1002/wcms.1159

 U. Borstnik, J. VandeVondele, V. Weber, J. Hutter.
 Parallel Comput. 40, 47-58 (2014).
 Sparse matrix multiplication: The distributed block-compressed sparse row 
 library.
 https://doi.org/10.1016/j.parco.2014.03.012

 M. Del Ben, J. Hutter, J. VandeVondele.
 J. Chem. Theory Comput. 9, 2654-2671 (2013).
 Electron Correlation in the Condensed Phase from a Resolution of Identity 
 Approach Based on the Gaussian and Plane Waves Scheme.
 https://doi.org/10.1021/ct4002202

 M. Del Ben, J. Hutter, J. VandeVondele.
 J. Chem. Theory Comput. 8, 4177-4188 (2012).
 Second-Order Moller-Plesset Perturbation Theory in the Condensed Phase: An 
 Efficient and Massively Parallel Gaussian and Plane Waves Approach.
 https://doi.org/10.1021/ct300531w

 M. Guidon, J. Hutter, J. VandeVondele.
 J. Chem. Theory Comput. 5, 3010-3021 (2009).
 Robust Periodic Hartree-Fock Exchange for Large-Scale Simulations Using 
 Gaussian Basis Sets.
 https://doi.org/10.1021/ct900494g

 M. Guidon, F. Schiffmann, J. Hutter, J. VandeVondele.
 J. Chem. Phys. 128, 214104 (2008).
 Ab initio molecular dynamics using hybrid density functionals.
 https://doi.org/10.1063/1.2931945

 L. Genovese, T. Deutsch, S. Goedecker.
 J. Chem. Phys. 127, 054704 (2007).
 Efficient and accurate three-dimensional Poisson solver for surface problems.
 https://doi.org/10.1063/1.2754685

 J. VandeVondele, J. Hutter.
 J. Chem. Phys. 127, 114105 (2007).
 Gaussian basis sets for accurate calculations on molecular systems in gas and 
 condensed phases.
 https://doi.org/10.1063/1.2770708

 L. Genovese, T. Deutsch, A. Neelov, S. Goedecker, G. Beylkin.
 J. Chem. Phys. 125, 074105 (2006).
 Efficient solution of Poisson's equation with free boundary conditions.
 https://doi.org/10.1063/1.2335442

 M. Frigo, S. G. Johnson.
 Proc. IEEE 93, 216-231 (2005).
 The design and implementation of FFTW3.
 https://doi.org/10.1109/JPROC.2004.840301

 M. Krack, M. Parrinello.
 Phys. Chem. Chem. Phys. 2, 2105-2112 (2000).
 All-electron ab-initio molecular dynamics.
 https://doi.org/10.1039/b001167n

 G. Lippert, J. Hutter, M. Parrinello.
 Theor. Chem. Acc. 103, 124-140 (1999).
 The Gaussian and augmented-plane-wave density functional method for ab initio 
 molecular dynamics simulations.
 https://doi.org/10.1007/s002140050523

 J. P. Perdew, K. Burke, M. Ernzerhof.
 Phys. Rev. Lett. 77, 3865-3868 (1996).
 Generalized gradient approximation made simple.
 https://doi.org/10.1103/PhysRevLett.77.3865


 -------------------------------------------------------------------------------
 -                                                                             -
 -                                T I M I N G                                  -
 -                                                                             -
 -------------------------------------------------------------------------------
 SUBROUTINE                       CALLS  ASD         SELF TIME        TOTAL TIME
                                MAXIMUM       AVERAGE  MAXIMUM  AVERAGE  MAXIMUM
 CP2K                                 1  1.0    0.038    0.070 1265.618 1265.619
 qs_energies                          1  2.0    0.001    0.001 1263.359 1263.584
 scf_env_do_scf                       1  3.0    0.000    0.000 1149.208 1149.212
 scf_env_do_scf_inner_loop           83  4.0    0.002    0.006 1149.208 1149.212
 qs_ks_build_kohn_sham_matrix        84  7.0    0.013    0.015 1083.365 1083.520
 qs_ks_update_qs_env                 83  5.0    0.001    0.001 1080.135 1080.289
 rebuild_ks_matrix                   83  6.0    0.000    0.000 1080.119 1080.272
 hfx_ks_matrix                       84  8.0    0.004    0.004  823.095  823.453
 integrate_four_center               84  9.0    3.771    5.875  823.088  823.448
 mp_sync                            869  9.6  544.418  607.161  544.418  607.161
 integrate_four_center_main          84 10.0    5.722  125.580   60.638  605.572
 integrate_four_center_bin         7573 11.0   54.916  603.927   54.916  603.927
 calc_screening_functions             1 10.0  194.638  202.220  200.323  208.002
 mp2_main                             1  3.0    0.000    0.000  111.866  112.092
 mp2_gpw_main                         1  4.0    0.000    0.000  108.347  108.365
 rpa_ri_compute_en                    1  5.0    0.000    0.000  103.305  103.305
 rpa_num_int                          1  6.0    0.001    0.002  102.961  102.976
 fft_wrap_pw1pw2                   1755  9.9    0.039    0.046  100.275  101.541
 compute_GW_self_energy             100  7.0    0.002    0.002   99.198   99.759
 compute_GW_self_energy_deep        100  8.0   81.080   81.368   98.924   99.486
 fft_wrap_pw1pw2_250               1251 11.1    4.299    4.812   96.982   98.317
 fft3d_ps                          1755 11.9   39.377   43.642   80.923   82.601
 pw_poisson_solve                    84  8.0    1.495    1.640   72.532   72.578
 qs_vxc_create                       84  8.0    0.001    0.001   58.853   58.855
 xc_vxc_pw_create                    83  9.0    1.037    1.162   58.851   58.854
 prepare_gapw_den                    84  8.0    0.002    0.003   52.168   52.350
 ps_wavelet_solve                    84  9.0   37.790   42.668   48.374   48.707
 xc_pw_derive                       498 11.0    0.006    0.007   43.563   44.891
 mp_alltoall_d54                     84 10.0    6.892   37.620    6.892   37.620
 calculate_rho_atom                 252  9.0    5.083   37.292    5.083   37.292
 qs_rho_update_rho_low               84  5.0    0.001    0.001   36.432   36.435
 mp_alltoall_z22v                  1755 13.9   32.074   36.224   32.074   36.224
 calculate_rho_elec                  84  6.0    0.821    0.875   36.022   36.025
 mp_sum_d                          7851  6.9   31.580   33.897   31.580   33.897
 mp_sum_dv                        15322  9.3   32.675   33.694   32.675   33.694
 sum_up_and_integrate                84  8.0    0.001    0.002   30.942   31.829
 integrate_v_rspace                  84  9.0    0.002    0.003   30.767   31.761
 xc_pw_divergence                    83 10.0    0.003    0.004   29.576   30.900
 gspace_mixing                       82  5.0    0.801    0.854   29.259   29.259
 xc_rho_set_and_dset_create          83 10.0    0.742    0.904   27.648   29.195
 calculate_vxc_atom                  84  8.0    0.073    1.098   27.919   27.920
 density_rs2pw                       84  7.0    0.005    0.006   25.908   27.381
 gaVxcgb_GC                         166  9.0    0.732   26.703    0.732   26.703
 yz_to_x                            837 12.8    2.770    3.300   19.833   23.499
 x_to_yz                            918 13.1    6.673    7.317   21.684   22.544
 broyden_mixing                      82  6.0   21.732   22.118   22.097   22.199
 mp_alltoall_d11v                  1632  9.5   15.644   20.315   15.644   20.315
 parallel_gemm_fm                   387  8.4    0.001    0.001   18.751   19.115
 parallel_gemm_fm_gemm              387  9.4    0.001    0.001   18.750   19.114
 cp_fm_gemm                         387 10.4   18.749   19.113   18.749   19.113
 potential_pw2rs                     84 10.0    0.043    0.047   17.531   18.537
 transfer_rs2pw                     421  8.4    0.008    0.012   15.107   16.400
 mp_waitany                       11132 11.5   14.150   16.085   14.150   16.085
 grid_collocate_task_list            84  7.0    8.838   13.689    8.838   13.689
 transfer_pw2rs                     421 10.6    0.006    0.008   13.352   13.548
 rs_gather_matrices                  84 10.0    0.010    0.034   12.244   13.238
 grid_integrate_task_list            84 10.0    0.989   13.148    0.989   13.148
 transfer_rs2pw_250                 169 10.0    3.120    3.516   11.712   13.049
 put_rho0_on_grid                    84  9.0    0.829    0.893   12.826   13.007
 mp_sum_l                          1122  6.5    7.762   12.187    7.762   12.187
 integrate_four_center_load          84 10.0    0.000    0.001    7.703   12.101
 hfx_load_balance                     1 11.0    0.000    0.000    7.702   12.100
 hfx_load_balance_range               1 12.0    0.000    0.003    7.690   12.088
 transfer_pw2rs_250                 169 11.0    2.871    3.061    8.984    9.395
 powell_optimize                3700110 11.0    9.233    9.367    9.233    9.367
 integrate_vhg0_rspace               84  8.0    0.934    1.073    7.778    7.867
 pw_scatter_p                       918 12.1    6.592    6.762    6.592    6.762
 mp_alltoall_d45                     85 10.0    3.400    6.701    3.400    6.701
 xc_functional_eval                 415 10.9    0.001    0.002    5.204    6.425
 pbe_lda_eval                       415 11.9    5.203    6.422    5.203    6.422
 pw_gather_p                        837 11.8    5.518    6.248    5.518    6.248
 calc_pair_dist_radii                 1 10.0    1.945    1.964    5.494    5.581
 pw_derive                          750 11.3    4.850    5.126    4.850    5.126
 mp2_ri_gpw_compute_in                1  5.0    0.004    0.005    4.991    4.992
 cp_fm_syevd                         89  7.0    0.001    0.001    4.973    4.985
 mp2_ri_gpw_compute_in_loop           1  6.0    0.000    0.000    4.973    4.974
 cp_fm_redistribute_end              89  8.0    2.465    4.881    2.477    4.887
 cp_fm_syevd_base                    89  8.0    2.401    4.810    2.401    4.810
 contract_B_L                         4  7.0    0.016    0.021    3.061    4.425
 mp2_eri_3c_integrate                 1  7.0    0.008    0.011    1.682    4.237
 integrate_set_3c                  6060  8.0    1.542    3.935    1.674    4.228
 mp_cart_create                     529 10.0    2.622    3.990    2.622    3.991
 dbt_pgrid_create_expert             84 10.8    0.000    0.000    2.594    3.962
 qs_scf_new_mos                      83  5.0    0.001    0.001    3.830    3.861
 mp_waitall_1                     26702 12.0    2.356    3.415    2.356    3.415
 compute_vec_Sigma_x_minus_vxc_       1  4.0    0.000    0.000    3.256    3.256
 eigensolver_symm                    84  6.0    0.003    0.003    3.221    3.225
 cp2k_distribution_to_z_slices       84  9.0    1.553    1.630    2.903    3.130
 pw_copy                           1255 10.6    2.882    3.052    2.882    3.052
 fft_wrap_pw1pw2_90                 168 10.5    0.123    0.160    2.632    2.973
 rs_grid_zero                       422 11.2    2.716    2.822    2.716    2.822
 Vh_1c_gg_integrals                  84  8.0    0.084    2.457    2.625    2.798
 pw_poisson_set                      85  8.9    0.003    0.003    2.671    2.717
 transfer_pw2rs_90                   84 12.0    0.528    0.639    2.009    2.657
 start_bse_calculation                1  7.0    0.000    0.000    2.530    2.530
 mp_sum_dm                         1096  7.6    1.929    2.502    1.929    2.502
 calculate_rho0_atom                252  9.0    1.981    2.068    1.981    2.068
 pw_axpy                            835  9.3    1.794    1.909    1.794    1.909
 transfer_pw2rs_30                   84 12.0    1.142    1.230    1.749    1.909
 pw_copy_to_array                   837 11.8    1.629    1.821    1.629    1.821
 transfer_rs2pw_90                   84  9.0    0.460    0.525    1.623    1.783
 pw_integral_ab_c1d_c1d_gs           84  9.0    1.233    1.244    1.358    1.478
 qs_energies_init_hamiltonians        1  3.0    0.000    0.000    1.434    1.434
 build_core_hamiltonian_matrix        1  4.0    0.000    0.000    1.424    1.424
 overlap_condnum                      1  5.0    0.000    0.001    1.407    1.422
 transfer_rs2pw_30                   84  9.0    0.655    0.686    1.341    1.370
 pw_copy_from_array                 918 12.1    1.126    1.364    1.126    1.364
 arnoldi_conjugate_gradient           5  6.0    0.028    0.034    1.306    1.306
 create_hermitian_form_of_ABBA        1  8.0    0.000    0.000    1.227    1.232
 create_qs_kind_set                   1  2.0    0.000    0.000    1.187    1.188
 read_qs_kind                         3  3.0    0.657    0.712    1.187    1.188
 pw_poisson_rebuild                  84  9.0    0.000    0.000    1.114    1.140
 ps_wavelet_create                    1 10.0    0.000    0.000    1.113    1.140
 RS_z_slice_distribution              1 11.0    0.988    1.032    1.113    1.140
 cp_fm_power                          2  7.5    0.018    0.022    1.104    1.109
 diagonalize_C                        1  8.0    0.000    0.000    1.086    1.087
 mp_sendrecv_dv                    7896 10.0    0.973    1.019    0.973    1.019
 mp_irecv_dm3                      3036 11.5    0.480    0.946    0.480    0.946
 mp_isendrecv_dv                  15792 12.0    0.448    0.914    0.448    0.914
 dbcsr_sym_matrix_vector_mult      4155  7.0    0.065    0.071    0.770    0.898
 mp_isend_dv                      10992 11.9    0.552    0.876    0.552    0.876
 pw_zero                            500 10.3    0.805    0.873    0.805    0.873
 mp_isend_dm3                      3036 11.5    0.360    0.802    0.360    0.802
 integrate_four_center_getP          84 10.0    0.023    0.029    0.746    0.757
 integrate_four_center_dist_KS       84 10.0    0.026    0.030    0.734    0.743
 qs_init_subsys                       1  2.0    0.008    0.012    0.726    0.726
 init_scf_run                         1  3.0    0.000    0.001    0.719    0.719
 transfer_pw2rs_10                   84 12.0    0.287    0.303    0.604    0.669
 scf_env_initial_rho_setup            1  4.0    0.000    0.000    0.666    0.667
 rpa_num_int_RPA_matrix_operati     100  7.0    0.001    0.004    0.637    0.638
 qs_env_setup                         1  3.0    0.000    0.000    0.576    0.600
 qs_env_rebuild_pw_env                2  3.5    0.000    0.000    0.574    0.598
 pw_env_rebuild                       1  5.0    0.001    0.001    0.574    0.598
 parser_read_line                140357  4.0    0.048    0.053    0.530    0.538
 fft_wrap_pw1pw2_30                 168 10.5    0.020    0.023    0.503    0.521
 parser_read_line_low               155  5.0    0.031    0.216    0.482    0.492
 pw_grid_setup                        4  6.0    0.000    0.000    0.453    0.478
 pw_grid_setup_internal               4  7.0    0.010    0.010    0.453    0.477
 update_ks_atom                      84  8.0    0.047    0.200    0.319    0.469
 calc_mat_Q                         100  8.0    0.000    0.000    0.458    0.468
 broadcast_input_information        155  6.0    0.103    0.118    0.450    0.467
 contract_S_to_Q                    100  9.0    0.001    0.001    0.446    0.455
 scale_and_distribute               168 10.0    0.417    0.442    0.417    0.442
 transfer_rs2pw_10                   84  9.0    0.136    0.146    0.423    0.438
 copy_dbcsr_to_fm                   130  6.7    0.002    0.003    0.417    0.437
 dbcsr_rep_row_to_rep_col_vec      4155  8.0    0.023    0.031    0.254    0.422
 mp_max_i                           597  3.0    0.281    0.411    0.281    0.411
 calculate_rho_atom_coeff            84  6.0    0.058    0.177    0.409    0.410
 dbt_total                            8  8.0    0.000    0.000    0.405    0.405
 mp_sum_i                            19  9.5    0.226    0.389    0.226    0.389
 restraint_control                    1  2.0    0.000    0.000    0.225    0.388
 mp2_main_alloc_hfx                   1  4.0    0.163    0.388    0.163    0.388
 dbcsr_add_d                       6301  7.0    0.006    0.007    0.064    0.374
 dbcsr_add_anytype                 6301  8.0    0.009    0.050    0.058    0.367
 dbcsr_multiply_generic             160  8.1    0.007    0.008    0.331    0.364
 create_integ_mat                     4  6.0    0.002    0.003    0.340    0.362
 array2fm                             4  7.0    0.000    0.000    0.314    0.358
 calculate_dm_sparse                 83  6.0    0.001    0.001    0.300    0.328
 cp_dbcsr_plus_fm_fm_t               83  7.0    0.001    0.002    0.299    0.325
 pw_grid_sort                         4  8.0    0.223    0.226    0.318    0.323
 dbt_contract                         4  9.0    0.001    0.001    0.318    0.321
 mp_bcast_dm                        672  9.0    0.271    0.319    0.271    0.319
 dbcsr_desymmetrize_deep            132  7.6    0.007    0.013    0.294    0.313
 abc_contract                      6060  9.0    0.132    0.293    0.132    0.293
 dbcsr_sym_matrix_vector_mult_l    4155  8.0    0.037    0.277    0.050    0.289
 pw_scale                           333  9.5    0.217    0.266    0.217    0.266
 cp_fm_cholesky_invert              101  8.0    0.249    0.261    0.249    0.261
 dbcsr_finalize                    7916 10.3    0.013    0.081    0.056    0.249
 dbcsr_col_vec_to_rep_row          4155  8.0    0.030    0.038    0.172    0.245
 mp_bcast_i_src                     620  7.0    0.164    0.227    0.164    0.227
 dbcsr_complete_redistribute        300  8.5    0.035    0.046    0.214    0.224
 mp_bcast_am_src                    155  7.0    0.150    0.190    0.171    0.221
 dbt_tas_multiply                     8 11.5    0.000    0.000    0.212    0.212
 dbt_tas_total                        8 12.5    0.001    0.002    0.211    0.211
 mp_alltoall_i22                    432  9.2    0.181    0.205    0.181    0.205
 dbt_copy                            12 10.1    0.000    0.000    0.168    0.182
 array2fm_info                        4  8.0    0.149    0.180    0.152    0.181
 mp_bcast_dv                       4244  9.0    0.110    0.175    0.110    0.175
 multiply_cannon                    160  9.1    0.012    0.013    0.147    0.174
 cp_fm_cholesky_decompose           102  9.0    0.168    0.173    0.168    0.173
 cp_fm_to_fm_submat_general         112 10.1    0.130    0.167    0.130    0.167
 compute_Erpa_by_freq_int           100  8.0    0.001    0.002    0.165    0.166
 hybrid_alltoall_any                452 11.0    0.035    0.040    0.152    0.160
 rs_scatter_matrices                 84  7.0    0.001    0.004    0.148    0.155
 mixing_init                          1  5.0    0.146    0.149    0.149    0.149
 make_m2s                           320  9.1    0.005    0.005    0.142    0.149
 multiply_cannon_loop               160 10.1    0.007    0.008    0.118    0.145
 dbt_tas_dbm                          8 13.5    0.000    0.000    0.144    0.144
 init_rho_atom                        1  3.0    0.001    0.002    0.112    0.144
 fft_wrap_pw1pw2_10                 168 10.5    0.004    0.005    0.119    0.141
 dbm_multiply                         8 15.5    0.128    0.136    0.128    0.136
 dbt_tas_mm_1N                        6 14.5    0.000    0.000    0.127    0.135
 scf_post_calculation_gpw             1  3.0    0.000    0.000    0.131    0.131
 write_available_results              1  4.0    0.000    0.000    0.130    0.131
 write_mo_free_results                1  5.0    0.013    0.014    0.130    0.131
 -------------------------------------------------------------------------------

 The number of warnings for this run is : 2
 
 -------------------------------------------------------------------------------
  **** **** ******  **  PROGRAM ENDED AT                 2025-03-19 00:53:17.493
 ***** ** ***  *** **   PROGRAM RAN ON                              i03r01c04s02
 **    ****   ******    PROGRAM RAN BY                                   di38fab
 ***** **    ** ** **   PROGRAM PROCESS ID                               2696910
  **** **  *******  **  PROGRAM STOPPED IN /hppfs/scratch/04/di38fab/05_MOL/W4-1
                                           1+ALK/c-hcoh/aug-cc-pV5Z/GW+BSE
