 DBCSR| CPU Multiplication driver                                           XSMM (U)
 DBCSR| Multrec recursion limit                                              512 (U)
 DBCSR| Multiplication stack size                                           1000 (D)
 DBCSR| Maximum elements for images                                    UNLIMITED (U)
 DBCSR| Multiplicative factor virtual images                                   1 (U)
 DBCSR| Use multiplication densification                                       T (D)
 DBCSR| Multiplication size stacks                                             3 (U)
 DBCSR| Use memory pool for CPU allocation                                     F (U)
 DBCSR| Number of 3D layers                                               SINGLE (U)
 DBCSR| Use MPI memory allocation                                              F (U)
 DBCSR| Use RMA algorithm                                                      F (U)
 DBCSR| Use Communication thread                                               T (U)
 DBCSR| Communication thread load                                             60 (D)
 DBCSR| MPI: My process id                                                     0
 DBCSR| MPI: Number of processes                                              80
 DBCSR| OMP: Current number of threads                                         8
 DBCSR| OMP: Max number of threads                                             8
 DBCSR| Split modifier for TAS multiplication algorithm                  1.0E+00 (U)


  **** **** ******  **  PROGRAM STARTED AT               2025-05-27 12:02:02.761
 ***** ** ***  *** **   PROGRAM STARTED ON                              n2cn0352
 **    ****   ******    PROGRAM STARTED BY                              metdyn02
 ***** **    ** ** **   PROGRAM PROCESS ID                                 98990
  **** **  *******  **  PROGRAM STARTED IN /scratch/hpc-prf-metdyn/metdyn02_Remi
                                           /10_MOL/05_MOL_low_scal/05_MOL/aUKBqs
                                           EOTmq69kFe5R_nOg/5k_set_final_qzvp/RE
                                           HKOE/SZV/1e-5/7.0

 CP2K| version string:                 CP2K version 2025.1 (Development Version)
 CP2K| source code revision number:                                  git:32ddf85
 CP2K| cp2kflags: omp libint fftw3 libxc libgrpp elpa parallel scalapack mpi_f08
 CP2K|             cosma xsmm plumed2 spglib libvori libbqb libvdwxc hdf5
 CP2K| is freely available from                            https://www.cp2k.org/
 CP2K| Program compiled at                         Mon May 19 11:32:37 CEST 2025
 CP2K| Program compiled on                                              n2login1
 CP2K| Program compiled for                                                local
 CP2K| Data directory path    /opt/software/pc2/EB-SW/software/CP2K/2024.1-foss-
 CP2K| Input file name                                                    GW.inp

 GLOBAL| Force Environment number                                              1
 GLOBAL| Basis set file name            /scratch/hpc-prf-metdyn/metdyn02_Remi/BA
 GLOBAL| Potential file name            /pc2/groups/hpc-prf-metdyn/metdyn02_Remi
 GLOBAL| MM Potential file name                                     MM_POTENTIAL
 GLOBAL| Coordinate file name                                      __STD_INPUT__
 GLOBAL| Method name                                                        CP2K
 GLOBAL| Project name                                                       MoS2
 GLOBAL| Run type                                                         ENERGY
 GLOBAL| FFT library                                                       FFTW3
 GLOBAL| Diagonalization library                                            ELPA
 GLOBAL| Cholesky decomposition library                                ScaLAPACK
 GLOBAL| DGEMM library                                                      BLAS
 GLOBAL| Minimum number of eigenvectors for ELPA usage                        16
 GLOBAL| Orthonormality check for eigenvectors                          DISABLED
 GLOBAL| Matrix multiplication library                                     COSMA
 GLOBAL| All-to-all communication in single precision                          F
 GLOBAL| FFTs using library dependent lengths                                  F
 GLOBAL| Grid backend                                                       AUTO
 GLOBAL| Global print level                                               MEDIUM
 GLOBAL| MPI I/O enabled                                                       T
 GLOBAL| Total number of message passing processes                            80
 GLOBAL| Number of threads for this process                                    8
 GLOBAL| This output is from process                                           0
 GLOBAL| OpenMP stack size per thread (OMP_STACKSIZE)                    default
 GLOBAL| CPU model name                          AMD EPYC 7763 64-Core Processor
 GLOBAL| CPUID                                                              1002

 MEMORY| system memory details [Kb]
 MEMORY|                        rank 0           min           max       average
 MEMORY| MemTotal            263897580     263897568     263897628     263897598
 MEMORY| MemFree             253092760     246917584     253715832     250689747
 MEMORY| Buffers                124884         28196        133936         79547
 MEMORY| Cached                6518412       6145896      11887552       8441228
 MEMORY| Slab                  1188208       1045224       2077504       1625947
 MEMORY| SReclaimable           240336        217800        661724        393477
 MEMORY| MemLikelyFree       259976392     259174540     260200584     259604000


 *** Fundamental physical constants (SI units) ***

 *** Literature: B. J. Mohr and B. N. Taylor,
 ***             CODATA recommended values of the fundamental physical
 ***             constants: 2006, Web Version 5.1
 ***             http://physics.nist.gov/constants

 Speed of light in vacuum [m/s]                             2.99792458000000E+08
 Magnetic constant or permeability of vacuum [N/A**2]       1.25663706143592E-06
 Electric constant or permittivity of vacuum [F/m]          8.85418781762039E-12
 Planck constant (h) [J*s]                                  6.62606896000000E-34
 Planck constant (h-bar) [J*s]                              1.05457162825177E-34
 Elementary charge [C]                                      1.60217648700000E-19
 Electron mass [kg]                                         9.10938215000000E-31
 Electron g factor [ ]                                     -2.00231930436220E+00
 Proton mass [kg]                                           1.67262163700000E-27
 Fine-structure constant                                    7.29735253760000E-03
 Rydberg constant [1/m]                                     1.09737315685270E+07
 Avogadro constant [1/mol]                                  6.02214179000000E+23
 Boltzmann constant [J/K]                                   1.38065040000000E-23
 Atomic mass unit [kg]                                      1.66053878200000E-27
 Bohr radius [m]                                            5.29177208590000E-11

 *** Conversion factors ***

 [u] -> [a.u.]                                              1.82288848426455E+03
 [Angstrom] -> [Bohr] = [a.u.]                              1.88972613288564E+00
 [a.u.] = [Bohr] -> [Angstrom]                              5.29177208590000E-01
 [a.u.] -> [s]                                              2.41888432650478E-17
 [a.u.] -> [fs]                                             2.41888432650478E-02
 [a.u.] -> [J]                                              4.35974393937059E-18
 [a.u.] -> [N]                                              8.23872205491840E-08
 [a.u.] -> [K]                                              3.15774647902944E+05
 [a.u.] -> [kJ/mol]                                         2.62549961709828E+03
 [a.u.] -> [kcal/mol]                                       6.27509468713739E+02
 [a.u.] -> [Pa]                                             2.94210107994716E+13
 [a.u.] -> [bar]                                            2.94210107994716E+08
 [a.u.] -> [atm]                                            2.90362800883016E+08
 [a.u.] -> [eV]                                             2.72113838565563E+01
 [a.u.] -> [Hz]                                             6.57968392072181E+15
 [a.u.] -> [1/cm] (wave numbers)                            2.19474631370540E+05
 [a.u./Bohr**2] -> [1/cm]                                   5.14048714338585E+03
 

 CELL_TOP| Volume [angstrom^3]:                                     27000.000000
 CELL_TOP| Vector a [angstrom    30.000     0.000     0.000   |a| =    30.000000
 CELL_TOP| Vector b [angstrom     0.000    30.000     0.000   |b| =    30.000000
 CELL_TOP| Vector c [angstrom     0.000     0.000    30.000   |c| =    30.000000
 CELL_TOP| Angle (b,c), alpha [degree]:                                90.000000
 CELL_TOP| Angle (a,c), beta  [degree]:                                90.000000
 CELL_TOP| Angle (a,b), gamma [degree]:                                90.000000
 CELL_TOP| Numerically orthorhombic:                                         YES
 CELL_TOP| Periodicity                                                      NONE

 GENERATE|  Preliminary Number of Bonds generated:                             0
 GENERATE|  Achieved consistency in connectivity generation.

 CELL| Volume [angstrom^3]:                                         27000.000000
 CELL| Vector a [angstrom]:      30.000     0.000     0.000   |a| =    30.000000
 CELL| Vector b [angstrom]:       0.000    30.000     0.000   |b| =    30.000000
 CELL| Vector c [angstrom]:       0.000     0.000    30.000   |c| =    30.000000
 CELL| Angle (b,c), alpha [degree]:                                    90.000000
 CELL| Angle (a,c), beta  [degree]:                                    90.000000
 CELL| Angle (a,b), gamma [degree]:                                    90.000000
 CELL| Numerically orthorhombic:                                             YES
 CELL| Periodicity                                                          NONE

 CELL_REF| Volume [angstrom^3]:                                     27000.000000
 CELL_REF| Vector a [angstrom    30.000     0.000     0.000   |a| =    30.000000
 CELL_REF| Vector b [angstrom     0.000    30.000     0.000   |b| =    30.000000
 CELL_REF| Vector c [angstrom     0.000     0.000    30.000   |c| =    30.000000
 CELL_REF| Angle (b,c), alpha [degree]:                                90.000000
 CELL_REF| Angle (a,c), beta  [degree]:                                90.000000
 CELL_REF| Angle (a,b), gamma [degree]:                                90.000000
 CELL_REF| Numerically orthorhombic:                                         YES
 CELL_REF| Periodicity                                                      NONE

 *******************************************************************************
 *******************************************************************************
 **                                                                           **
 **     #####                         ##              ##                      **
 **    ##   ##            ##          ##              ##                      **
 **   ##     ##                       ##            ######                    **
 **   ##     ##  ##   ##  ##   #####  ##  ##   ####   ##    #####    #####    **
 **   ##     ##  ##   ##  ##  ##      ## ##   ##      ##   ##   ##  ##   ##   **
 **   ##  ## ##  ##   ##  ##  ##      ####     ###    ##   ######   ######    **
 **    ##  ###   ##   ##  ##  ##      ## ##      ##   ##   ##       ##        **
 **     #######   #####   ##   #####  ##  ##  ####    ##    #####   ##        **
 **           ##                                                    ##        **
 **                                                                           **
 **                                                ... make the atoms dance   **
 **                                                                           **
 **            Copyright (C) by CP2K developers group (2000-2025)             **
 **                      J. Chem. Phys. 152, 194103 (2020)                    **
 **                                                                           **
 *******************************************************************************

 DFT| Spin restricted Kohn-Sham (RKS) calculation                            RKS
 DFT| Multiplicity                                                             1
 DFT| Number of spin states                                                    1
 DFT| Charge                                                                   0
 DFT| Self-interaction correction (SIC)                                       NO
 DFT| Cutoffs: density                                              1.000000E-10
 DFT|          gradient                                             1.000000E-10
 DFT|          tau                                                  1.000000E-10
 DFT|          cutoff_smoothing_range                               0.000000E+00
 DFT| XC density smoothing                                                  NONE
 DFT| XC derivatives                                                          PW

 FUNCTIONAL| PBE:
 FUNCTIONAL| J.P.Perdew, K.Burke, M.Ernzerhof, Phys. Rev. Letter, vol. 77, n 18,
 FUNCTIONAL|  pp. 3865-3868, (1996)sx=0.750sc=1.000{spin unpolarized}           


 QS| Method:                                                                GAPW
 QS| Density plane wave grid type                        NON-SPHERICAL FULLSPACE
 QS| Number of grid levels:                                                    4
 QS| Density cutoff [a.u.]:                                                250.0
 QS| Multi grid cutoff [a.u.]: 1) grid level                               250.0
 QS|                           2) grid level                                83.3
 QS|                           3) grid level                                27.8
 QS|                           4) grid level                                 9.3
 QS| Grid level progression factor:                                          3.0
 QS| Relative density cutoff [a.u.]:                                        50.0
 QS| Interaction thresholds: eps_pgf_orb:                                1.0E-12
 QS|                         eps_filter_matrix:                          0.0E+00
 QS|                         eps_core_charge:                            1.0E-14
 QS|                         eps_rho_gspace:                             1.0E-12
 QS|                         eps_rho_rspace:                             1.0E-12
 QS|                         eps_gvg_rspace:                             1.0E-06
 QS|                         eps_ppl:                                    1.0E-02
 QS|                         eps_ppnl:                                   1.0E-08
 QS| GAPW|      One center basis from orbital basis primitives
 QS| GAPW|                   eps_fit:                                    1.0E-04
 QS| GAPW|                   eps_iso:                                    1.0E-12
 QS| GAPW|                   eps_svd:                                    1.0E-08
 QS| GAPW|                   eps_cpc:                                    1.0E-12
 QS| GAPW|   atom-r-grid: quadrature:                                     GC_LOG
 QS| GAPW|      atom-s-grid:  max l :                                          4
 QS| GAPW|      max_l_rho0 :                                                   2


 ATOMIC KIND INFORMATION

  1. Atomic kind: C                                     Number of atoms:       4

     Orbital Basis Set                                         aug-SZV-MOLOPT-ae

       Number of orbital shell sets:                                           2
       Number of orbital shells:                                               6
       Number of primitive Cartesian functions:                               13
       Number of Cartesian basis functions:                                   15
       Number of spherical basis functions:                                   14
       Norm type:                                                              2

       Normalised Cartesian orbitals:

                        Set   Shell   Orbital            Exponent    Coefficient

                          1       1    2s                0.070000       0.000000
                                                         0.143687       0.040037
                                                         0.313471       0.177689
                                                         0.721783       0.139661
                                                         1.876046      -0.038599
                                                         6.036200      -0.128975
                                                        30.497239      -0.122578

                          1       2    3s                0.070000      -0.142268
                                                         0.143687       0.288819
                                                         0.313471       0.010360
                                                         0.721783       0.175994
                                                         1.876046       0.000000
                                                         6.036200       0.000000
                                                        30.497239       0.000000

                          1       3    3px               0.070000       0.000000
                                                         0.143687       0.012825
                                                         0.313471       0.142381
                                                         0.721783       0.396426
                                                         1.876046       0.544234
                                                         6.036200       0.508157
                                                        30.497239       0.384077
                          1       3    3py               0.070000       0.000000
                                                         0.143687       0.012825
                                                         0.313471       0.142381
                                                         0.721783       0.396426
                                                         1.876046       0.544234
                                                         6.036200       0.508157
                                                        30.497239       0.384077
                          1       3    3pz               0.070000       0.000000
                                                         0.143687       0.012825
                                                         0.313471       0.142381
                                                         0.721783       0.396426
                                                         1.876046       0.544234
                                                         6.036200       0.508157
                                                        30.497239       0.384077

                          1       4    4px               0.070000       0.076505
                                                         0.143687      -0.086104
                                                         0.313471       0.010230
                                                         0.721783       0.129894
                                                         1.876046       0.000000
                                                         6.036200       0.000000
                                                        30.497239       0.000000
                          1       4    4py               0.070000       0.076505
                                                         0.143687      -0.086104
                                                         0.313471       0.010230
                                                         0.721783       0.129894
                                                         1.876046       0.000000
                                                         6.036200       0.000000
                                                        30.497239       0.000000
                          1       4    4pz               0.070000       0.076505
                                                         0.143687      -0.086104
                                                         0.313471       0.010230
                                                         0.721783       0.129894
                                                         1.876046       0.000000
                                                         6.036200       0.000000
                                                        30.497239       0.000000

                          1       5    4dx2              0.070000       0.004316
                                                         0.143687       0.012639
                                                         0.313471       0.125057
                                                         0.721783       0.080411
                                                         1.876046       0.000000
                                                         6.036200       0.000000
                                                        30.497239       0.000000
                          1       5    4dxy              0.070000       0.007476
                                                         0.143687       0.021892
                                                         0.313471       0.216606
                                                         0.721783       0.139276
                                                         1.876046       0.000000
                                                         6.036200       0.000000
                                                        30.497239       0.000000
                          1       5    4dxz              0.070000       0.007476
                                                         0.143687       0.021892
                                                         0.313471       0.216606
                                                         0.721783       0.139276
                                                         1.876046       0.000000
                                                         6.036200       0.000000
                                                        30.497239       0.000000
                          1       5    4dy2              0.070000       0.004316
                                                         0.143687       0.012639
                                                         0.313471       0.125057
                                                         0.721783       0.080411
                                                         1.876046       0.000000
                                                         6.036200       0.000000
                                                        30.497239       0.000000
                          1       5    4dyz              0.070000       0.007476
                                                         0.143687       0.021892
                                                         0.313471       0.216606
                                                         0.721783       0.139276
                                                         1.876046       0.000000
                                                         6.036200       0.000000
                                                        30.497239       0.000000
                          1       5    4dz2              0.070000       0.004316
                                                         0.143687       0.012639
                                                         0.313471       0.125057
                                                         0.721783       0.080411
                                                         1.876046       0.000000
                                                         6.036200       0.000000
                                                        30.497239       0.000000

                          2       1    1s              742.737049       0.929185
                                                       136.180025       1.402437
                                                        38.098264       1.841991
                                                        13.087782       1.817278
                                                         5.082369       1.004768
                                                         2.093200       0.161650

     RI Auxiliary Basis Set             RI_aug-SZV-MOLOPT-ae_N_RI_048_s_p_d_f_g_

       Number of orbital shell sets:                                          14
       Number of orbital shells:                                              14
       Number of primitive Cartesian functions:                               14
       Number of Cartesian basis functions:                                   62
       Number of spherical basis functions:                                   48
       Norm type:                                                              2

       Normalised Cartesian orbitals:

                        Set   Shell   Orbital            Exponent    Coefficient

                          1       1    1s                0.182132       0.198701

                          2       1    7px               0.213594       0.206979
                          2       1    7py               0.213594       0.206979
                          2       1    7pz               0.213594       0.206979

                          3       1   10dx2              0.381125       0.304282
                          3       1   10dxy              0.381125       0.527033
                          3       1   10dxz              0.381125       0.527033
                          3       1   10dy2              0.381125       0.304282
                          3       1   10dyz              0.381125       0.527033
                          3       1   10dz2              0.381125       0.304282

                          4       1    2s                0.433905       0.381027

                          5       1   12fx3              0.524446       0.344573
                          5       1   12fx2y             0.524446       0.770488
                          5       1   12fx2z             0.524446       0.770488
                          5       1   12fxy2             0.524446       0.770488
                          5       1   12fxyz             0.524446       1.334524
                          5       1   12fxz2             0.524446       0.770488
                          5       1   12fy3              0.524446       0.344573
                          5       1   12fy2z             0.524446       0.770488
                          5       1   12fyz2             0.524446       0.770488
                          5       1   12fz3              0.524446       0.344573

                          6       1    8px               0.915857       1.277099
                          6       1    8py               0.915857       1.277099
                          6       1    8pz               0.915857       1.277099

                          7       1   14gx4              1.217666       1.912659
                          7       1   14gx3y             1.217666       5.060419
                          7       1   14gx3z             1.217666       5.060419
                          7       1   14gx2y2            1.217666       6.532973
                          7       1   14gx2yz            1.217666      11.315442
                          7       1   14gx2z2            1.217666       6.532973
                          7       1   14gxy3             1.217666       5.060419
                          7       1   14gxy2z            1.217666      11.315442
                          7       1   14gxyz2            1.217666      11.315442
                          7       1   14gxz3             1.217666       5.060419
                          7       1   14gy4              1.217666       1.912659
                          7       1   14gy3z             1.217666       5.060419
                          7       1   14gy2z2            1.217666       6.532973
                          7       1   14gyz3             1.217666       5.060419
                          7       1   14gz4              1.217666       1.912659

                          8       1   11dx2              1.581488       3.670921
                          8       1   11dxy              1.581488       6.358221
                          8       1   11dxz              1.581488       6.358221
                          8       1   11dy2              1.581488       3.670921
                          8       1   11dyz              1.581488       6.358221
                          8       1   11dz2              1.581488       3.670921

                          9       1    3s                1.620693       1.023730

                         10       1   13fx3              2.677157      13.496481
                         10       1   13fx2y             2.677157      30.179050
                         10       1   13fx2z             2.677157      30.179050
                         10       1   13fxy2             2.677157      30.179050
                         10       1   13fxyz             2.677157      52.271648
                         10       1   13fxz2             2.677157      30.179050
                         10       1   13fy3              2.677157      13.496481
                         10       1   13fy2z             2.677157      30.179050
                         10       1   13fyz2             2.677157      30.179050
                         10       1   13fz3              2.677157      13.496481

                         11       1    4s                5.999661       2.732154

                         12       1    9px               9.284861      23.102519
                         12       1    9py               9.284861      23.102519
                         12       1    9pz               9.284861      23.102519

                         13       1    5s               22.224963       7.295262

                         14       1    6s               82.329769      19.479498

       Atomic covalent radius [Angstrom]:                                  0.770

       Atomic van der Waals radius [Angstrom]:                             1.700

     The atoms of this atomic kind are PAW atoms (GAPW):
       Hard Gaussian function radius:                                      1.512
       Rho0 radius:                                                        1.512
       Maximum GTO radius used for PAW projector construction:            24.566

     GAPW Soft Basis Set                                  aug-SZV-MOLOPT-ae_soft

       Number of orbital shell sets:                                           2
       Number of orbital shells:                                               6
       Number of primitive Cartesian functions:                                6
       Number of Cartesian basis functions:                                   15
       Number of spherical basis functions:                                   14
       Norm type:                                                              2

       Normalised Cartesian orbitals:

                        Set   Shell   Orbital            Exponent    Coefficient

                          1       1    2s                0.070000       0.000000
                                                         0.143687       0.040037
                                                         0.313471       0.177689
                                                         0.721783       0.139661
                                                         1.876046      -0.038599

                          1       2    3s                0.070000      -0.142268
                                                         0.143687       0.288819
                                                         0.313471       0.010360
                                                         0.721783       0.175994
                                                         1.876046       0.000000

                          1       3    3px               0.070000       0.000000
                                                         0.143687       0.012825
                                                         0.313471       0.142381
                                                         0.721783       0.396426
                                                         1.876046       0.544234
                          1       3    3py               0.070000       0.000000
                                                         0.143687       0.012825
                                                         0.313471       0.142381
                                                         0.721783       0.396426
                                                         1.876046       0.544234
                          1       3    3pz               0.070000       0.000000
                                                         0.143687       0.012825
                                                         0.313471       0.142381
                                                         0.721783       0.396426
                                                         1.876046       0.544234

                          1       4    4px               0.070000       0.076505
                                                         0.143687      -0.086104
                                                         0.313471       0.010230
                                                         0.721783       0.129894
                                                         1.876046       0.000000
                          1       4    4py               0.070000       0.076505
                                                         0.143687      -0.086104
                                                         0.313471       0.010230
                                                         0.721783       0.129894
                                                         1.876046       0.000000
                          1       4    4pz               0.070000       0.076505
                                                         0.143687      -0.086104
                                                         0.313471       0.010230
                                                         0.721783       0.129894
                                                         1.876046       0.000000

                          1       5    4dx2              0.070000       0.004316
                                                         0.143687       0.012639
                                                         0.313471       0.125057
                                                         0.721783       0.080411
                                                         1.876046       0.000000
                          1       5    4dxy              0.070000       0.007476
                                                         0.143687       0.021892
                                                         0.313471       0.216606
                                                         0.721783       0.139276
                                                         1.876046       0.000000
                          1       5    4dxz              0.070000       0.007476
                                                         0.143687       0.021892
                                                         0.313471       0.216606
                                                         0.721783       0.139276
                                                         1.876046       0.000000
                          1       5    4dy2              0.070000       0.004316
                                                         0.143687       0.012639
                                                         0.313471       0.125057
                                                         0.721783       0.080411
                                                         1.876046       0.000000
                          1       5    4dyz              0.070000       0.007476
                                                         0.143687       0.021892
                                                         0.313471       0.216606
                                                         0.721783       0.139276
                                                         1.876046       0.000000
                          1       5    4dz2              0.070000       0.004316
                                                         0.143687       0.012639
                                                         0.313471       0.125057
                                                         0.721783       0.080411
                                                         1.876046       0.000000

                          2       1    1s                2.093200       0.161650

     AE Potential information for                                            ALL

       Description:                                       All-electron potential
                                          Krack, Parrinello, PCCP 2, 2105 (2000)

       Gaussian exponent of the core charge distribution:               4.109048
       Electronic configuration (s p d ...):                           4   2   0

  2. Atomic kind: H                                     Number of atoms:       6

     Orbital Basis Set                                         aug-SZV-MOLOPT-ae

       Number of orbital shell sets:                                           1
       Number of orbital shells:                                               4
       Number of primitive Cartesian functions:                                7
       Number of Cartesian basis functions:                                    6
       Number of spherical basis functions:                                    6
       Norm type:                                                              2

       Normalised Cartesian orbitals:

                        Set   Shell   Orbital            Exponent    Coefficient

                          1       1    1s                0.065428       0.000000
                                                         0.100112       0.016532
                                                         0.243077       0.102760
                                                         0.625955       0.185857
                                                         1.822143       0.188385
                                                         6.513144       0.143430
                                                        35.523221       0.095030

                          1       2    2s                0.065428       0.083549
                                                         0.100112       0.009605
                                                         0.243077       0.002524
                                                         0.625955       0.013457
                                                         1.822143       0.000000
                                                         6.513144       0.000000
                                                        35.523221       0.000000

                          1       3    3s                0.065428       0.037407
                                                         0.100112      -0.169070
                                                         0.243077      -0.018899
                                                         0.625955       0.012806
                                                         1.822143       0.000000
                                                         6.513144       0.000000
                                                        35.523221       0.000000

                          1       4    2px               0.065428       0.059908
                                                         0.100112      -0.023770
                                                         0.243077       0.000032
                                                         0.625955       0.017779
                                                         1.822143       0.000000
                                                         6.513144       0.000000
                                                        35.523221       0.000000
                          1       4    2py               0.065428       0.059908
                                                         0.100112      -0.023770
                                                         0.243077       0.000032
                                                         0.625955       0.017779
                                                         1.822143       0.000000
                                                         6.513144       0.000000
                                                        35.523221       0.000000
                          1       4    2pz               0.065428       0.059908
                                                         0.100112      -0.023770
                                                         0.243077       0.000032
                                                         0.625955       0.017779
                                                         1.822143       0.000000
                                                         6.513144       0.000000
                                                        35.523221       0.000000

     RI Auxiliary Basis Set             RI_aug-SZV-MOLOPT-ae_N_RI_010_s_p_d_f_g_

       Number of orbital shell sets:                                           6
       Number of orbital shells:                                               6
       Number of primitive Cartesian functions:                                6
       Number of Cartesian basis functions:                                   10
       Number of spherical basis functions:                                   10
       Norm type:                                                              2

       Normalised Cartesian orbitals:

                        Set   Shell   Orbital            Exponent    Coefficient

                          1       1    1s                0.176483       0.194061

                          2       1    5px               0.271192       0.278957
                          2       1    5py               0.271192       0.278957
                          2       1    5pz               0.271192       0.278957

                          3       1    2s                0.492580       0.419052

                          4       1    3s                1.172790       0.803203

                          5       1    6px               1.607445       2.579943
                          5       1    6py               1.607445       2.579943
                          5       1    6pz               1.607445       2.579943

                          6       1    4s                4.913565       2.352110

       Atomic covalent radius [Angstrom]:                                  0.320

       Atomic van der Waals radius [Angstrom]:                             1.090

     The atoms of this atomic kind are PAW atoms (GAPW):
       Hard Gaussian function radius:                                      1.200
       Rho0 radius:                                                        1.200
       Maximum GTO radius used for PAW projector construction:            24.566

     GAPW Soft Basis Set                                  aug-SZV-MOLOPT-ae_soft

       Number of orbital shell sets:                                           1
       Number of orbital shells:                                               4
       Number of primitive Cartesian functions:                                6
       Number of Cartesian basis functions:                                    6
       Number of spherical basis functions:                                    6
       Norm type:                                                              2

       Normalised Cartesian orbitals:

                        Set   Shell   Orbital            Exponent    Coefficient

                          1       1    1s                0.065428       0.000000
                                                         0.100112       0.016532
                                                         0.243077       0.102760
                                                         0.625955       0.185857
                                                         1.822143       0.188385
                                                         6.513144       0.000000

                          1       2    2s                0.065428       0.083549
                                                         0.100112       0.009605
                                                         0.243077       0.002524
                                                         0.625955       0.013457
                                                         1.822143       0.000000
                                                         6.513144       0.000000

                          1       3    3s                0.065428       0.037407
                                                         0.100112      -0.169070
                                                         0.243077      -0.018899
                                                         0.625955       0.012806
                                                         1.822143       0.000000
                                                         6.513144       0.000000

                          1       4    2px               0.065428       0.059908
                                                         0.100112      -0.023770
                                                         0.243077       0.000032
                                                         0.625955       0.017779
                                                         1.822143       0.000000
                                                         6.513144       0.000000
                          1       4    2py               0.065428       0.059908
                                                         0.100112      -0.023770
                                                         0.243077       0.000032
                                                         0.625955       0.017779
                                                         1.822143       0.000000
                                                         6.513144       0.000000
                          1       4    2pz               0.065428       0.059908
                                                         0.100112      -0.023770
                                                         0.243077       0.000032
                                                         0.625955       0.017779
                                                         1.822143       0.000000
                                                         6.513144       0.000000

     AE Potential information for                                            ALL

       Description:                                       All-electron potential
                                          Krack, Parrinello, PCCP 2, 2105 (2000)

       Gaussian exponent of the core charge distribution:              12.500000
       Electronic configuration (s p d ...):                           1   0   0

  3. Atomic kind: N                                     Number of atoms:       2

     Orbital Basis Set                                         aug-SZV-MOLOPT-ae

       Number of orbital shell sets:                                           2
       Number of orbital shells:                                               6
       Number of primitive Cartesian functions:                               13
       Number of Cartesian basis functions:                                   15
       Number of spherical basis functions:                                   14
       Norm type:                                                              2

       Normalised Cartesian orbitals:

                        Set   Shell   Orbital            Exponent    Coefficient

                          1       1    1s                0.090000       0.000000
                                                         0.184684       0.048330
                                                         0.402911       0.214496
                                                         0.927724       0.168591
                                                         2.411326      -0.046594
                                                         7.758467      -0.155691
                                                        39.198808      -0.147969

                          1       2    2s                0.090000      -0.118940
                                                         0.184684       0.080942
                                                         0.402911      -0.164238
                                                         0.927724      -0.024406
                                                         2.411326       0.000000
                                                         7.758467       0.000000
                                                        39.198808       0.000000

                          1       3    2px               0.090000       0.000000
                                                         0.184684       0.017552
                                                         0.402911       0.194858
                                                         0.927724       0.542535
                                                         2.411326       0.744820
                                                         7.758467       0.695446
                                                        39.198808       0.525635
                          1       3    2py               0.090000       0.000000
                                                         0.184684       0.017552
                                                         0.402911       0.194858
                                                         0.927724       0.542535
                                                         2.411326       0.744820
                                                         7.758467       0.695446
                                                        39.198808       0.525635
                          1       3    2pz               0.090000       0.000000
                                                         0.184684       0.017552
                                                         0.402911       0.194858
                                                         0.927724       0.542535
                                                         2.411326       0.744820
                                                         7.758467       0.695446
                                                        39.198808       0.525635

                          1       4    3px               0.090000      -0.032237
                                                         0.184684      -0.080882
                                                         0.402911       0.112185
                                                         0.927724       1.067728
                                                         2.411326       0.000000
                                                         7.758467       0.000000
                                                        39.198808       0.000000
                          1       4    3py               0.090000      -0.032237
                                                         0.184684      -0.080882
                                                         0.402911       0.112185
                                                         0.927724       1.067728
                                                         2.411326       0.000000
                                                         7.758467       0.000000
                                                        39.198808       0.000000
                          1       4    3pz               0.090000      -0.032237
                                                         0.184684      -0.080882
                                                         0.402911       0.112185
                                                         0.927724       1.067728
                                                         2.411326       0.000000
                                                         7.758467       0.000000
                                                        39.198808       0.000000

                          1       5    3dx2              0.090000      -0.010633
                                                         0.184684      -0.050923
                                                         0.402911       0.103346
                                                         0.927724      -0.777682
                                                         2.411326       0.000000
                                                         7.758467       0.000000
                                                        39.198808       0.000000
                          1       5    3dxy              0.090000      -0.018417
                                                         0.184684      -0.088201
                                                         0.402911       0.179000
                                                         0.927724      -1.346985
                                                         2.411326       0.000000
                                                         7.758467       0.000000
                                                        39.198808       0.000000
                          1       5    3dxz              0.090000      -0.018417
                                                         0.184684      -0.088201
                                                         0.402911       0.179000
                                                         0.927724      -1.346985
                                                         2.411326       0.000000
                                                         7.758467       0.000000
                                                        39.198808       0.000000
                          1       5    3dy2              0.090000      -0.010633
                                                         0.184684      -0.050923
                                                         0.402911       0.103346
                                                         0.927724      -0.777682
                                                         2.411326       0.000000
                                                         7.758467       0.000000
                                                        39.198808       0.000000
                          1       5    3dyz              0.090000      -0.018417
                                                         0.184684      -0.088201
                                                         0.402911       0.179000
                                                         0.927724      -1.346985
                                                         2.411326       0.000000
                                                         7.758467       0.000000
                                                        39.198808       0.000000
                          1       5    3dz2              0.090000      -0.010633
                                                         0.184684      -0.050923
                                                         0.402911       0.103346
                                                         0.927724      -0.777682
                                                         2.411326       0.000000
                                                         7.758467       0.000000
                                                        39.198808       0.000000

                          2       1    1s             1027.828458       1.185541
                                                       188.451223       1.789359
                                                        52.721861       2.350183
                                                        18.111382       2.318652
                                                         7.033180       1.281976
                                                         2.896652       0.206248

     RI Auxiliary Basis Set             RI_aug-SZV-MOLOPT-ae_N_RI_051_s_p_d_f_g_

       Number of orbital shell sets:                                          17
       Number of orbital shells:                                              17
       Number of primitive Cartesian functions:                               17
       Number of Cartesian basis functions:                                   60
       Number of spherical basis functions:                                   51
       Norm type:                                                              2

       Normalised Cartesian orbitals:

                        Set   Shell   Orbital            Exponent    Coefficient

                          1       1    1s                0.308884       0.295295

                          2       1    8px               0.372325       0.414565
                          2       1    8py               0.372325       0.414565
                          2       1    8pz               0.372325       0.414565

                          3       1   13dx2              0.401147       0.332805
                          3       1   13dxy              0.401147       0.576435
                          3       1   13dxz              0.401147       0.576435
                          3       1   13dy2              0.401147       0.332805
                          3       1   13dyz              0.401147       0.576435
                          3       1   13dz2              0.401147       0.332805

                          4       1   16fx3              0.613602       0.490569
                          4       1   16fx2y             0.613602       1.096946
                          4       1   16fx2z             0.613602       1.096946
                          4       1   16fxy2             0.613602       1.096946
                          4       1   16fxyz             0.613602       1.899967
                          4       1   16fxz2             0.613602       1.096946
                          4       1   16fy3              0.613602       0.490569
                          4       1   16fy2z             0.613602       1.096946
                          4       1   16fyz2             0.613602       1.096946
                          4       1   16fz3              0.613602       0.490569

                          5       1    2s                0.845155       0.628221

                          6       1    9px               1.077639       1.565062
                          6       1    9py               1.077639       1.565062
                          6       1    9pz               1.077639       1.565062

                          7       1   14dx2              1.441421       3.120996
                          7       1   14dxy              1.441421       5.405723
                          7       1   14dxz              1.441421       5.405723
                          7       1   14dy2              1.441421       3.120996
                          7       1   14dyz              1.441421       5.405723
                          7       1   14dz2              1.441421       3.120996

                          8       1   17fx3              2.081896       7.664558
                          8       1   17fx2y             2.081896      17.138473
                          8       1   17fx2z             2.081896      17.138473
                          8       1   17fxy2             2.081896      17.138473
                          8       1   17fxyz             2.081896      29.684706
                          8       1   17fxz2             2.081896      17.138473
                          8       1   17fy3              2.081896       7.664558
                          8       1   17fy2z             2.081896      17.138473
                          8       1   17fyz2             2.081896      17.138473
                          8       1   17fz3              2.081896       7.664558

                          9       1   10px               2.237750       3.901257
                          9       1   10py               2.237750       3.901257
                          9       1   10pz               2.237750       3.901257

                         10       1    3s                2.278088       1.321563

                         11       1   15dx2              5.280359      30.274047
                         11       1   15dxy              5.280359      52.436187
                         11       1   15dxz              5.280359      52.436187
                         11       1   15dy2              5.280359      30.274047
                         11       1   15dyz              5.280359      52.436187
                         11       1   15dz2              5.280359      30.274047

                         12       1    4s                6.008482       2.735166

                         13       1   11px               7.627165      18.067331
                         13       1   11py               7.627165      18.067331
                         13       1   11pz               7.627165      18.067331

                         14       1    5s               15.831184       5.656466

                         15       1   12px              22.316937      69.140629
                         15       1   12py              22.316937      69.140629
                         15       1   12pz              22.316937      69.140629

                         16       1    6s               41.723131      11.700186

                         17       1    7s              109.969173      24.202672

       Atomic covalent radius [Angstrom]:                                  0.750

       Atomic van der Waals radius [Angstrom]:                             1.550

     The atoms of this atomic kind are PAW atoms (GAPW):
       Hard Gaussian function radius:                                      1.512
       Rho0 radius:                                                        1.512
       Maximum GTO radius used for PAW projector construction:            24.566

     GAPW Soft Basis Set                                  aug-SZV-MOLOPT-ae_soft

       Number of orbital shell sets:                                           2
       Number of orbital shells:                                               6
       Number of primitive Cartesian functions:                                6
       Number of Cartesian basis functions:                                   15
       Number of spherical basis functions:                                   14
       Norm type:                                                              2

       Normalised Cartesian orbitals:

                        Set   Shell   Orbital            Exponent    Coefficient

                          1       1    1s                0.090000       0.000000
                                                         0.184684       0.048330
                                                         0.402911       0.214496
                                                         0.927724       0.168591
                                                         2.411326      -0.046594

                          1       2    2s                0.090000      -0.118940
                                                         0.184684       0.080942
                                                         0.402911      -0.164238
                                                         0.927724      -0.024406
                                                         2.411326       0.000000

                          1       3    2px               0.090000       0.000000
                                                         0.184684       0.017552
                                                         0.402911       0.194858
                                                         0.927724       0.542535
                                                         2.411326       0.744820
                          1       3    2py               0.090000       0.000000
                                                         0.184684       0.017552
                                                         0.402911       0.194858
                                                         0.927724       0.542535
                                                         2.411326       0.744820
                          1       3    2pz               0.090000       0.000000
                                                         0.184684       0.017552
                                                         0.402911       0.194858
                                                         0.927724       0.542535
                                                         2.411326       0.744820

                          1       4    3px               0.090000      -0.032237
                                                         0.184684      -0.080882
                                                         0.402911       0.112185
                                                         0.927724       1.067728
                                                         2.411326       0.000000
                          1       4    3py               0.090000      -0.032237
                                                         0.184684      -0.080882
                                                         0.402911       0.112185
                                                         0.927724       1.067728
                                                         2.411326       0.000000
                          1       4    3pz               0.090000      -0.032237
                                                         0.184684      -0.080882
                                                         0.402911       0.112185
                                                         0.927724       1.067728
                                                         2.411326       0.000000

                          1       5    3dx2              0.090000      -0.010633
                                                         0.184684      -0.050923
                                                         0.402911       0.103346
                                                         0.927724      -0.777682
                                                         2.411326       0.000000
                          1       5    3dxy              0.090000      -0.018417
                                                         0.184684      -0.088201
                                                         0.402911       0.179000
                                                         0.927724      -1.346985
                                                         2.411326       0.000000
                          1       5    3dxz              0.090000      -0.018417
                                                         0.184684      -0.088201
                                                         0.402911       0.179000
                                                         0.927724      -1.346985
                                                         2.411326       0.000000
                          1       5    3dy2              0.090000      -0.010633
                                                         0.184684      -0.050923
                                                         0.402911       0.103346
                                                         0.927724      -0.777682
                                                         2.411326       0.000000
                          1       5    3dyz              0.090000      -0.018417
                                                         0.184684      -0.088201
                                                         0.402911       0.179000
                                                         0.927724      -1.346985
                                                         2.411326       0.000000
                          1       5    3dz2              0.090000      -0.010633
                                                         0.184684      -0.050923
                                                         0.402911       0.103346
                                                         0.927724      -0.777682
                                                         2.411326       0.000000

                          2       1    1s                2.896652       0.206248

     AE Potential information for                                            ALL

       Description:                                       All-electron potential
                                          Krack, Parrinello, PCCP 2, 2105 (2000)

       Gaussian exponent of the core charge distribution:               5.979100
       Electronic configuration (s p d ...):                           4   3   0

  4. Atomic kind: O                                     Number of atoms:       1

     Orbital Basis Set                                         aug-SZV-MOLOPT-ae

       Number of orbital shell sets:                                           2
       Number of orbital shells:                                               6
       Number of primitive Cartesian functions:                               13
       Number of Cartesian basis functions:                                   15
       Number of spherical basis functions:                                   14
       Norm type:                                                              2

       Normalised Cartesian orbitals:

                        Set   Shell   Orbital            Exponent    Coefficient

                          1       1    1s                0.123000       0.000000
                                                         0.245881       0.059902
                                                         0.536420       0.265853
                                                         1.235135       0.208956
                                                         3.210345      -0.057750
                                                        10.329320      -0.192968
                                                        52.187762      -0.183398

                          1       2    2s                0.123000      -0.253465
                                                         0.245881       0.187097
                                                         0.536420       0.063592
                                                         1.235135       0.074938
                                                         3.210345       0.000000
                                                        10.329320       0.000000
                                                        52.187762       0.000000

                          1       3    2px               0.123000       0.000000
                                                         0.245881       0.025102
                                                         0.536420       0.278668
                                                         1.235135       0.775885
                                                         3.210345       1.065175
                                                        10.329320       0.994565
                                                        52.187762       0.751716
                          1       3    2py               0.123000       0.000000
                                                         0.245881       0.025102
                                                         0.536420       0.278668
                                                         1.235135       0.775885
                                                         3.210345       1.065175
                                                        10.329320       0.994565
                                                        52.187762       0.751716
                          1       3    2pz               0.123000       0.000000
                                                         0.245881       0.025102
                                                         0.536420       0.278668
                                                         1.235135       0.775885
                                                         3.210345       1.065175
                                                        10.329320       0.994565
                                                        52.187762       0.751716

                          1       4    3px               0.123000       0.048536
                                                         0.245881       0.257066
                                                         0.536420      -0.539300
                                                         1.235135      -0.153605
                                                         3.210345       0.000000
                                                        10.329320       0.000000
                                                        52.187762       0.000000
                          1       4    3py               0.123000       0.048536
                                                         0.245881       0.257066
                                                         0.536420      -0.539300
                                                         1.235135      -0.153605
                                                         3.210345       0.000000
                                                        10.329320       0.000000
                                                        52.187762       0.000000
                          1       4    3pz               0.123000       0.048536
                                                         0.245881       0.257066
                                                         0.536420      -0.539300
                                                         1.235135      -0.153605
                                                         3.210345       0.000000
                                                        10.329320       0.000000
                                                        52.187762       0.000000

                          1       5    3dx2              0.123000       0.022065
                                                         0.245881       0.038414
                                                         0.536420       0.100211
                                                         1.235135       0.626583
                                                         3.210345       0.000000
                                                        10.329320       0.000000
                                                        52.187762       0.000000
                          1       5    3dxy              0.123000       0.038217
                                                         0.245881       0.066534
                                                         0.536420       0.173571
                                                         1.235135       1.085274
                                                         3.210345       0.000000
                                                        10.329320       0.000000
                                                        52.187762       0.000000
                          1       5    3dxz              0.123000       0.038217
                                                         0.245881       0.066534
                                                         0.536420       0.173571
                                                         1.235135       1.085274
                                                         3.210345       0.000000
                                                        10.329320       0.000000
                                                        52.187762       0.000000
                          1       5    3dy2              0.123000       0.022065
                                                         0.245881       0.038414
                                                         0.536420       0.100211
                                                         1.235135       0.626583
                                                         3.210345       0.000000
                                                        10.329320       0.000000
                                                        52.187762       0.000000
                          1       5    3dyz              0.123000       0.038217
                                                         0.245881       0.066534
                                                         0.536420       0.173571
                                                         1.235135       1.085274
                                                         3.210345       0.000000
                                                        10.329320       0.000000
                                                        52.187762       0.000000
                          1       5    3dz2              0.123000       0.022065
                                                         0.245881       0.038414
                                                         0.536420       0.100211
                                                         1.235135       0.626583
                                                         3.210345       0.000000
                                                        10.329320       0.000000
                                                        52.187762       0.000000

                          2       1    1s             1355.584234       1.459053
                                                       248.544885       2.202176
                                                        69.533902       2.892385
                                                        23.886772       2.853580
                                                         9.275933       1.577736
                                                         3.820341       0.253831

     RI Auxiliary Basis Set             RI_aug-SZV-MOLOPT-ae_N_RI_059_s_p_d_f_g_

       Number of orbital shell sets:                                          19
       Number of orbital shells:                                              19
       Number of primitive Cartesian functions:                               19
       Number of Cartesian basis functions:                                   69
       Number of spherical basis functions:                                   59
       Norm type:                                                              2

[...]
 calculate_vxc_atom                  77  8.0    0.036    0.100    0.799    0.799
 cp2k_distribution_to_z_slices       77  9.0    0.287    0.327    0.746    0.772
 calc_pair_dist_radii                 1 10.0    0.253    0.261    0.738    0.753
 mp_sum_dm                         3078  7.7    0.622    0.694    0.622    0.694
 compute_3c_and_contract_W           24  8.0    0.000    0.000    0.686    0.686
 compute_V_xc                         1  7.0    0.000    0.000    0.667    0.667
 G_times_3c                          60  8.0    0.000    0.001    0.665    0.666
 gaVxcgb_GC                         152  9.0    0.056    0.650    0.056    0.650
 calculate_rho_atom                 308  9.0    0.336    0.606    0.336    0.606
 eigensolver_symm                    76  6.0    0.005    0.006    0.587    0.590
 parallel_gemm_fm                   336  8.3    0.000    0.000    0.547    0.580
 parallel_gemm_fm_cosma             336  9.3    0.547    0.580    0.547    0.580
 rs_grid_zero                       387 11.2    0.537    0.578    0.537    0.578
 pw_poisson_set                      78  9.0    0.001    0.001    0.525    0.558
 pw_copy_to_array                   767 11.8    0.458    0.558    0.458    0.558
 fft_wrap_pw1pw2_90                 154 10.5    0.024    0.025    0.511    0.540
 dbt_tas_dbm                        386 14.4    0.000    0.000    0.540    0.540
 fm_write                           121  9.0    0.005    0.264    0.395    0.519
 dbt_tas_distribution_new          1376 14.4    0.261    0.272    0.511    0.519
 copy_dbcsr_to_fm                   270  8.4    0.003    0.003    0.470    0.496
 dbt_tas_create_split              1318 15.1    0.001    0.001    0.491    0.496
 dbt_tas_create_split_rows_or_c    1318 16.1    0.003    0.003    0.490    0.494
 write_matrix                        91  8.0    0.000    0.000    0.397    0.485
 parallel_gemm_cfm                  283 10.4    0.000    0.000    0.468    0.478
 parallel_gemm_cfm_cosma            283 11.4    0.468    0.478    0.468    0.478
 pw_copy_from_array                 841 12.1    0.393    0.475    0.393    0.475
 rs_gather_matrices                  77 10.0    0.001    0.003    0.399    0.461
 dbt_tas_estimate_result_nze        193 12.9    0.013    0.017    0.443    0.443
 grid_integrate_task_list            77 10.0    0.056    0.433    0.056    0.433
 mp_isend_dm3                      2784 11.5    0.139    0.423    0.139    0.423
 dbcsr_complete_redistribute        574  9.4    0.016    0.021    0.416    0.423
 cp_fm_diag_elpa                     82  7.1    0.000    0.000    0.413    0.416
 transfer_pw2rs_10                   77 12.0    0.123    0.132    0.389    0.413
 abc_contract_xsmm                41508 10.5    0.089    0.407    0.089    0.407
 cp_fm_write_unformatted            125  9.9    0.401    0.404    0.401    0.405
 cp_fm_diag_elpa_base                82  8.0    0.375    0.395    0.384    0.402
 dbm_multiply                       386 16.4    0.330    0.393    0.330    0.393
 pw_integral_ab_c1d_c1d_gs           77  9.0    0.338    0.345    0.370    0.390
 pw_poisson_rebuild                  77  9.0    0.000    0.000    0.369    0.385
 ps_wavelet_create                    1 10.0    0.000    0.000    0.369    0.385
 RS_z_slice_distribution              1 11.0    0.252    0.279    0.369    0.385
 fm_to_local_tensor                 152  8.0    0.001    0.002    0.373    0.375
 mp_sum_dv                         4371  8.6    0.331    0.373    0.331    0.373
 pw_axpy                            765  9.3    0.345    0.366    0.345    0.366
 reshape_mm_small                   386 14.4    0.026    0.027    0.348    0.354
 calculate_dm_sparse                 76  6.0    0.000    0.000    0.258    0.350
 cp_dbcsr_plus_fm_fm_t               76  7.0    0.001    0.001    0.257    0.350
 compute_cfm_W_ikp_freq_j            30 10.0    0.000    0.001    0.306    0.307
 G_occ_vir                          121  8.0    0.001    0.003    0.269    0.295
 mp_bcast_dm                       2003  9.0    0.278    0.294    0.278    0.294
 check_sparsity_3c                    1  7.0    0.000    0.000    0.283    0.283
 transfer_rs2pw_10                   77  9.0    0.078    0.082    0.258    0.281
 dbcsr_multiply_generic              76  8.0    0.003    0.003    0.170    0.261
 mp_cart_create                    2803 14.4    0.245    0.252    0.247    0.254
 reshape_mm_compatible              386 14.4    0.004    0.004    0.245    0.251
 mp_sum_l                          2934 12.0    0.213    0.244    0.213    0.244
 dbcsr_desymmetrize_deep            276  9.4    0.003    0.004    0.217    0.243
 init_scf_run                         1  3.0    0.000    0.000    0.234    0.234
 change_split                       579 14.9    0.002    0.002    0.225    0.230
 scf_env_initial_rho_setup            1  4.0    0.000    0.000    0.224    0.224
 dbt_create_matrix                  152  9.0    0.001    0.001    0.220    0.222
 compute_QP_energies                  1  7.0    0.000    0.000    0.218    0.218
 qs_energies_init_hamiltonians        1  3.0    0.000    0.000    0.218    0.218
 mp_comm_split_direct              1320 17.1    0.215    0.216    0.215    0.217
 build_core_hamiltonian_matrix        1  4.0    0.000    0.000    0.215    0.215
 overlap_condnum                      1  5.0    0.000    0.000    0.213    0.215
 pw_zero                            458 10.3    0.203    0.212    0.203    0.212
 dbt_tas_mm_2                       142 15.1    0.000    0.000    0.208    0.208
 arnoldi_conjugate_gradient           5  6.0    0.004    0.005    0.198    0.198
 multiply_cannon                     76  9.0    0.004    0.004    0.102    0.194
 dbt_distribution_new_expert        316 10.5    0.002    0.002    0.192    0.192
 calculate_rho_atom_coeff            77  6.0    0.021    0.029    0.189    0.190
 qs_init_subsys                       1  2.0    0.001    0.001    0.188    0.189
 qs_env_setup                         1  3.0    0.000    0.000    0.184    0.185
 qs_env_rebuild_pw_env                2  3.5    0.000    0.000    0.184    0.185
 pw_env_rebuild                       1  5.0    0.000    0.000    0.184    0.185
 self_consistency_check              76  5.0    0.000    0.000    0.112    0.184
 cp_sm_mix                           76  6.0    0.000    0.000    0.112    0.184
 mp_max_d                            83  7.0    0.112    0.184    0.112    0.184
 multiply_cannon_loop                76 10.0    0.005    0.005    0.091    0.182
 to_ikp_and_mo                       62  8.0    0.000    0.000    0.180    0.180
 fm_Gamma_ao_to_cfm_ikp_mo           62  9.0    0.000    0.000    0.177    0.179
 copy_fm_to_dbcsr                   304  8.5    0.001    0.001    0.171    0.178
 mp_alltoall_i11v                  1998 10.4    0.171    0.171    0.171    0.171
 mp_comm_dup                       1129 17.5    0.164    0.170    0.165    0.170
 multiply_cannon_metrocomm3        1520 11.0    0.002    0.005    0.060    0.168
 pw_grid_setup                        4  6.0    0.000    0.000    0.164    0.165
 pw_grid_setup_internal               4  7.0    0.002    0.003    0.164    0.165
 convert_to_new_pgrid              1158 14.4    0.058    0.078    0.137    0.162
 mp_alltoall_i22                    850 10.4    0.116    0.147    0.116    0.147
 dbm_redistribute                   432 13.7    0.113    0.146    0.113    0.146
 fft_wrap_pw1pw2_30                 154 10.5    0.004    0.005    0.135    0.139
 dbt_copy                           414 10.0    0.002    0.002    0.100    0.131
 get_Sigma_x                          1  7.0    0.000    0.000    0.130    0.130
 compute_Sigma_x                      1  8.0    0.000    0.000    0.130    0.130
 multiply_fm_W_MIC_time_with_Mi       2  9.0    0.000    0.000    0.129    0.129
 mp_max_i                           950  6.4    0.097    0.125    0.097    0.125
 Vh_1c_gg_integrals                  77  8.0    0.010    0.063    0.108    0.121
 dbcsr_sym_matrix_vector_mult      1355  7.0    0.010    0.010    0.114    0.121
 mp_isendrecv_dv                  24332 12.0    0.036    0.119    0.036    0.119
 pw_grid_sort                         4  8.0    0.082    0.085    0.111    0.119
 dbt_reshape                        253 10.9    0.036    0.038    0.087    0.118
 dbt_tas_reshape                    485 14.6    0.003    0.003    0.079    0.116
 update_ks_atom                      77  8.0    0.016    0.027    0.094    0.111
 check_for_restart_files              1  7.0    0.094    0.109    0.094    0.109
 dbt_tas_replicate                  386 14.4    0.017    0.019    0.095    0.106
 multiply_cannon_metrocomm1        1520 11.0    0.001    0.001    0.014    0.102
 create_qs_kind_set                   1  2.0    0.000    0.000    0.100    0.101
 read_qs_kind                         4  3.0    0.040    0.050    0.100    0.101
 mp_irecv_dm3                      2784 11.5    0.015    0.099    0.015    0.099
 dbt_tas_mm_3N                       46 15.5    0.000    0.000    0.070    0.099
 fill_fm_Sigma_c_Gamma_time           1  8.0    0.000    0.000    0.093    0.094
 dbcsr_add_d                       2992  8.3    0.001    0.002    0.026    0.092
 dbcsr_add_anytype                 2992  9.3    0.003    0.010    0.025    0.091
 scale_and_distribute               154 10.0    0.065    0.088    0.065    0.088
 dbt_tas_mm_1N                      104 15.5    0.000    0.000    0.063    0.084
 multiply_cannon_metrocomm4        1444 11.0    0.002    0.002    0.007    0.083
 dbcsr_finalize                    5990 11.2    0.010    0.021    0.044    0.079
 mp_waitall_2                      2332 16.0    0.046    0.079    0.046    0.079
 setup_time_and_frequency_minim       1  7.0    0.000    0.000    0.075    0.077
 mp_alltoall_i                     1620 14.2    0.071    0.076    0.071    0.076
 mp_cart_sub                        556 10.4    0.074    0.075    0.074    0.075
 dbt_create_new                     158 10.0    0.001    0.002    0.073    0.074
 cp_cfm_cholesky_decompose           35 10.7    0.071    0.074    0.071    0.074
 dbt_tas_mm_3T                       94 15.5    0.000    0.000    0.057    0.073
 compute_fm_chi_Gamma_freq           30 10.0    0.000    0.000    0.067    0.071
 hybrid_alltoall_any                428 11.0    0.002    0.002    0.067    0.069
 calculate_rho0_atom                308  9.0    0.064    0.066    0.064    0.066
 fft_wrap_pw1pw2_10                 154 10.5    0.001    0.001    0.062    0.065
 pw_scale                           305  9.5    0.043    0.063    0.043    0.063
 dbt_tas_communicate_buffer         871 16.5    0.007    0.009    0.040    0.063
 parser_read_line                 17131  4.0    0.003    0.003    0.060    0.062
 dbt_communicate_buffer             253 11.9    0.001    0.002    0.030    0.062
 integrate_four_center_load          77 10.0    0.000    0.000    0.043    0.061
 hfx_load_balance                     1 11.0    0.000    0.000    0.043    0.061
 parser_read_line_low                30  5.0    0.001    0.016    0.058    0.060
 broadcast_input_information         30  6.0    0.005    0.005    0.056    0.059
 cp_cfm_geeig                         2  7.0    0.000    0.000    0.058    0.058
 integrate_four_center_getP          77 10.0    0.006    0.006    0.055    0.057
 dbt_pgrid_create_expert            320 11.5    0.000    0.001    0.053    0.055
 cp_fm_power                          3  8.7    0.000    0.001    0.054    0.054
 make_m2s                           152  9.0    0.002    0.003    0.050    0.052
 mp_rank_compare                   1608 13.0    0.047    0.052    0.047    0.052
 hfx_load_balance_range               1 12.0    0.000    0.000    0.032    0.050
 cp_cfm_cholesky_invert              31 11.0    0.048    0.050    0.048    0.050
 dbt_tas_reshape_communicate_bu     485 15.6    0.001    0.001    0.014    0.048
 dos_pdos_ldos                        1  5.0    0.000    0.000    0.036    0.047
 dbcsr_col_vec_to_rep_row          1355  8.0    0.004    0.005    0.038    0.045
 integrate_four_center_dist_KS       77 10.0    0.005    0.007    0.042    0.044
 dbt_tas_merge                      142 14.1    0.009    0.011    0.031    0.041
 scf_post_calculation_gpw             1  3.0    0.000    0.000    0.041    0.041
 write_available_results              1  4.0    0.000    0.000    0.040    0.041
 write_mo_free_results                1  5.0    0.004    0.005    0.040    0.041
 mp_bcast_i_src                     120  7.0    0.034    0.040    0.034    0.040
 dbcsr_rep_row_to_rep_col_vec      1355  8.0    0.003    0.004    0.027    0.040
 vxc_of_r_new                       304  9.0    0.001    0.006    0.003    0.039
 cp_fm_symm                          76  7.0    0.034    0.037    0.034    0.037
 cp_fm_redistribute_end              82  8.1    0.019    0.037    0.020    0.037
 dbcsr_merge_all                   4132 12.4    0.015    0.027    0.021    0.036
 dbcsr_iterator_start             22260  9.4    0.020    0.027    0.024    0.034
 sort_shells                          4  9.0    0.029    0.034    0.029    0.034
 dbt_tas_mp_comm                    193 12.9    0.000    0.001    0.033    0.034
 dbt_tas_reshape_buffer_obtain      485 15.6    0.022    0.027    0.028    0.033
 mp_bcast_dv                       1357  9.0    0.025    0.032    0.025    0.032
 dbt_nd_mp_comm                     152 10.0    0.000    0.000    0.030    0.032
 mixing_init                          1  5.0    0.026    0.028    0.028    0.028
 mp_sum_i                           546 14.0    0.026    0.027    0.026    0.027
 get_l_sq_wghts_cos_tf_t_to_w         1  8.0    0.026    0.027    0.026    0.027
 dbcsr_work_create                 4864 11.3    0.009    0.018    0.012    0.027
 get_l_sq_wghts_sin_tf_t_to_w         1  8.0    0.026    0.026    0.026    0.026
 mp_maxloc_dv                      1625  1.0    0.021    0.026    0.021    0.026
 RI_2c_integral_mat                   4  9.8    0.000    0.000    0.025    0.026
 dbt_tas_replicate_communicate_     244 15.5    0.001    0.001    0.015    0.025
 xc_pw_smooth                        76 10.0    0.000    0.000    0.023    0.024
 get_l_sq_wghts_cos_tf_w_to_t         1  8.0    0.022    0.023    0.023    0.024
 dbt_tas_merge_communicate_buff     142 15.1    0.000    0.000    0.013    0.023
 compute_MinvVsqrt_Vsqrt              1  9.0    0.000    0.000    0.023    0.023
 dbt_tas_replicate_alltoall         244 15.5    0.000    0.000    0.019    0.023
 pw_grid_remap                        4  8.0    0.003    0.003    0.018    0.023
 rs_scatter_matrices                 77  7.0    0.001    0.001    0.022    0.022
 offload_free_buffer                 85  8.5    0.012    0.022    0.012    0.022
 make_images                        152 10.0    0.004    0.004    0.021    0.022
 dbt_tas_reshape_alltoall           485 15.6    0.000    0.000    0.020    0.022
 dbt_tas_copy                       320 13.6    0.012    0.015    0.018    0.022
 mp_bcast_am_src                     30  7.0    0.017    0.020    0.017    0.021
 global_matrix_to_local_matrix      152  9.0    0.001    0.001    0.018    0.020
 mp_sum_im3                           6  9.5    0.015    0.020    0.015    0.020
 dbm_reserve_blocks                2339 15.7    0.017    0.020    0.017    0.020
 dbcsr_crop_matrix                  456 10.0    0.002    0.002    0.019    0.019
 delete_unnecessary_files             1  8.0    0.000    0.000    0.000    0.019
 local_dbt_to_global_mat             91  8.0    0.000    0.000    0.016    0.019
 safe_delete                         60  9.0    0.000    0.019    0.000    0.019
 hirshfeld_integration                1  6.0    0.001    0.005    0.019    0.019
 dbcsr_copy                        6226  7.7    0.010    0.011    0.018    0.019
 dbcsr_create_new                  9866  9.4    0.013    0.014    0.018    0.019
 dbcsr_work_destroy_all            4864 12.2    0.006    0.013    0.009    0.018
 dbt_tas_reserve_blocks_index      1953 14.8    0.002    0.002    0.016    0.018
 dbcsr_iterator_stop              22260  9.4    0.011    0.015    0.013    0.018
 dbt_tas_reshape_buffer_fill        485 15.6    0.013    0.017    0.013    0.017
 mp_irecv_dv                      18035 13.0    0.010    0.017    0.010    0.017
 mp_bcast_b_src                     158  7.6    0.012    0.016    0.012    0.016
 calculate_hirshfeld_normalizat       1  6.0    0.001    0.005    0.016    0.016
 write_mo_set_to_restart             76  5.0    0.001    0.011    0.012    0.016
 local_matrix_to_global_matrix       91  9.0    0.000    0.000    0.012    0.015
 dbcsr_copy_submatrix               456 11.0    0.002    0.002    0.014    0.015
 rs_grid_create                      83  8.8    0.000    0.000    0.003    0.015
 pw_grid_assign                       4  8.0    0.013    0.014    0.014    0.015
 compute_max_radius                   1  6.0    0.014    0.015    0.014    0.015
 offload_create_buffer               85  9.8    0.003    0.014    0.003    0.014
 restraint_control                    1  2.0    0.000    0.000    0.014    0.014
 create_and_init_bs_env               1  5.0    0.000    0.000    0.014    0.014
 write_dos_pdos                       2  6.0    0.000    0.014    0.000    0.014
 mp_bcast_av                        813  1.0    0.005    0.007    0.012    0.014
 build_3c_integrals_put_dbcsr      1572 10.6    0.004    0.014    0.004    0.014
 mp_sum_iv                           35  7.8    0.011    0.013    0.011    0.013
 dbcsr_filter_anytype               721  9.8    0.002    0.002    0.010    0.013
 dbcsr_data_new                   47474 11.7    0.008    0.013    0.008    0.013
 mp_comm_free                      5865 13.5    0.012    0.013    0.012    0.013
 cp_fm_redistribute_start            82  8.1    0.003    0.004    0.009    0.012
 make_images_sizes                  152 11.0    0.000    0.000    0.010    0.012
 mp_alltoall_i44                    152 12.0    0.010    0.012    0.010    0.012
 compute_proj_mo_on_kind              1  6.0    0.000    0.000    0.012    0.012
 dbcsr_data_release               74753 11.4    0.008    0.012    0.008    0.012
 cp_fm_uplo_to_full                  85  9.1    0.009    0.011    0.009    0.011
 external_control                    76  5.0    0.000    0.009    0.011    0.011
 write_mo_set_low                     4  6.0    0.000    0.000    0.011    0.011
 mp_bcast_i                        1906 12.5    0.009    0.011    0.009    0.011
 mp_recv_dv                        3345 10.9    0.000    0.010    0.000    0.010
 hfx_create                           1  2.0    0.009    0.010    0.009    0.010
 diagonalize_ks_matrix                1  6.0    0.000    0.000    0.010    0.010
 cp_fm_geeig_canon                    1  7.0    0.000    0.000    0.010    0.010
 dbt_buffer_get_index             69680 16.1    0.007    0.009    0.007    0.009
 dbt_tas_reserve_blocks_templat     706 14.2    0.001    0.002    0.008    0.009
 compute_V_k_by_lattice_sum           1  9.0    0.000    0.000    0.009    0.009
 dbm_add                            386 14.4    0.007    0.009    0.007    0.009
 mp_sum_im                           12  9.0    0.007    0.009    0.007    0.009
 -------------------------------------------------------------------------------

 The number of warnings for this run is : 1
 
 -------------------------------------------------------------------------------
  **** **** ******  **  PROGRAM ENDED AT                 2025-05-27 12:03:32.767
 ***** ** ***  *** **   PROGRAM RAN ON                                  n2cn0352
 **    ****   ******    PROGRAM RAN BY                                  metdyn02
 ***** **    ** ** **   PROGRAM PROCESS ID                                 98990
  **** **  *******  **  PROGRAM STOPPED IN /scratch/hpc-prf-metdyn/metdyn02_Remi
                                           /10_MOL/05_MOL_low_scal/05_MOL/aUKBqs
                                           EOTmq69kFe5R_nOg/5k_set_final_qzvp/RE
                                           HKOE/SZV/1e-5/7.0
