 DBCSR| CPU Multiplication driver                                           BLAS (U)
 DBCSR| Multrec recursion limit                                              512 (U)
 DBCSR| Multiplication stack size                                           1000 (D)
 DBCSR| Maximum elements for images                                    UNLIMITED (U)
 DBCSR| Multiplicative factor virtual images                                   1 (U)
 DBCSR| Use multiplication densification                                       T (D)
 DBCSR| Multiplication size stacks                                             3 (U)
 DBCSR| Use memory pool for CPU allocation                                     F (U)
 DBCSR| Number of 3D layers                                               SINGLE (U)
 DBCSR| Use MPI memory allocation                                              F (U)
 DBCSR| Use RMA algorithm                                                      F (U)
 DBCSR| Use Communication thread                                               T (U)
 DBCSR| Communication thread load                                             45 (D)
 DBCSR| MPI: My process id                                                     0
 DBCSR| MPI: Number of processes                                             512
 DBCSR| OMP: Current number of threads                                        12
 DBCSR| OMP: Max number of threads                                            12
 DBCSR| Split modifier for TAS multiplication algorithm                  1.0E+00 (U)


  **** **** ******  **  PROGRAM STARTED AT               2025-04-14 17:50:48.980
 ***** ** ***  *** **   PROGRAM STARTED ON                          i05r04c05s11
 **    ****   ******    PROGRAM STARTED BY                               di38fab
 ***** **    ** ** **   PROGRAM PROCESS ID                               1565453
  **** **  *******  **  PROGRAM STARTED IN /hppfs/scratch/04/di38fab/05_MOL/aUKB
                                           qsEOTmq69kFe5R_nOg/5k_set_final_qzvp/
                                           QQQHJA02/aug-cc-pV5Z/TDDFT

 CP2K| version string:                 CP2K version 2025.1 (Development Version)
 CP2K| source code revision number:                             unknown revision
 CP2K| cp2kflags: omp libint fftw3 libxc parallel scalapack max_contr=4         
 CP2K| is freely available from                            https://www.cp2k.org/
 CP2K| Program compiled at                         Thu Apr 10 16:20:23 CEST 2025
 CP2K| Program compiled on                                               login01
 CP2K| Program compiled for                                        Supermuc-foss
 CP2K| Data directory path                  /hppfs/work/pn36zo/di38fab/cp2k/data
 CP2K| Input file name                                                    GW.inp

 GLOBAL| Force Environment number                                              1
 GLOBAL| Basis set file name            /hppfs/scratch/04/di38fab/04_TMD/BASIS_A
 GLOBAL| Potential file name            /hppfs/work/pn36zo/di38fab/cp2k/data/ALL
 GLOBAL| MM Potential file name                                     MM_POTENTIAL
 GLOBAL| Coordinate file name                                      __STD_INPUT__
 GLOBAL| Method name                                                        CP2K
 GLOBAL| Project name                                                       MoS2
 GLOBAL| Run type                                                         ENERGY
 GLOBAL| FFT library                                                       FFTW3
 GLOBAL| Diagonalization library                                       ScaLAPACK
 GLOBAL| DGEMM library                                                      BLAS
 GLOBAL| Orthonormality check for eigenvectors                          DISABLED
 GLOBAL| Matrix multiplication library                                 ScaLAPACK
 GLOBAL| All-to-all communication in single precision                          F
 GLOBAL| FFTs using library dependent lengths                                  F
 GLOBAL| Grid backend                                                       AUTO
 GLOBAL| Global print level                                               MEDIUM
 GLOBAL| MPI I/O enabled                                                       T
 GLOBAL| Total number of message passing processes                           512
 GLOBAL| Number of threads for this process                                   12
 GLOBAL| This output is from process                                           0
 GLOBAL| OpenMP stack size per thread (OMP_STACKSIZE)                    default
 GLOBAL| CPU model name             Intel(R) Xeon(R) Platinum 8174 CPU @ 3.10GHz

 MEMORY| system memory details [Kb]
 MEMORY|                        rank 0           min           max       average
 MEMORY| MemTotal             98436664      98436636      98436864      98436670
 MEMORY| MemFree              84860184      84043372      87088324      84943179
 MEMORY| Buffers                     0             0             0             0
 MEMORY| Cached                2361360       2256432       2785148       2415576
 MEMORY| Slab                  1235424        869096       1269108       1215411
 MEMORY| SReclaimable           276808        174640        286388        270313
 MEMORY| MemLikelyFree        87498352      87075632      89522388      87629068


 *** Fundamental physical constants (SI units) ***

 *** Literature: B. J. Mohr and B. N. Taylor,
 ***             CODATA recommended values of the fundamental physical
 ***             constants: 2006, Web Version 5.1
 ***             http://physics.nist.gov/constants

 Speed of light in vacuum [m/s]                             2.99792458000000E+08
 Magnetic constant or permeability of vacuum [N/A**2]       1.25663706143592E-06
 Electric constant or permittivity of vacuum [F/m]          8.85418781762039E-12
 Planck constant (h) [J*s]                                  6.62606896000000E-34
 Planck constant (h-bar) [J*s]                              1.05457162825177E-34
 Elementary charge [C]                                      1.60217648700000E-19
 Electron mass [kg]                                         9.10938215000000E-31
 Electron g factor [ ]                                     -2.00231930436220E+00
 Proton mass [kg]                                           1.67262163700000E-27
 Fine-structure constant                                    7.29735253760000E-03
 Rydberg constant [1/m]                                     1.09737315685270E+07
 Avogadro constant [1/mol]                                  6.02214179000000E+23
 Boltzmann constant [J/K]                                   1.38065040000000E-23
 Atomic mass unit [kg]                                      1.66053878200000E-27
 Bohr radius [m]                                            5.29177208590000E-11

 *** Conversion factors ***

 [u] -> [a.u.]                                              1.82288848426455E+03
 [Angstrom] -> [Bohr] = [a.u.]                              1.88972613288564E+00
 [a.u.] = [Bohr] -> [Angstrom]                              5.29177208590000E-01
 [a.u.] -> [s]                                              2.41888432650478E-17
 [a.u.] -> [fs]                                             2.41888432650478E-02
 [a.u.] -> [J]                                              4.35974393937059E-18
 [a.u.] -> [N]                                              8.23872205491840E-08
 [a.u.] -> [K]                                              3.15774647902944E+05
 [a.u.] -> [kJ/mol]                                         2.62549961709828E+03
 [a.u.] -> [kcal/mol]                                       6.27509468713739E+02
 [a.u.] -> [Pa]                                             2.94210107994716E+13
 [a.u.] -> [bar]                                            2.94210107994716E+08
 [a.u.] -> [atm]                                            2.90362800883016E+08
 [a.u.] -> [eV]                                             2.72113838565563E+01
 [a.u.] -> [Hz]                                             6.57968392072181E+15
 [a.u.] -> [1/cm] (wave numbers)                            2.19474631370540E+05
 [a.u./Bohr**2] -> [1/cm]                                   5.14048714338585E+03
 

 CELL_TOP| Volume [angstrom^3]:                                     27000.000000
 CELL_TOP| Vector a [angstrom    30.000     0.000     0.000   |a| =    30.000000
 CELL_TOP| Vector b [angstrom     0.000    30.000     0.000   |b| =    30.000000
 CELL_TOP| Vector c [angstrom     0.000     0.000    30.000   |c| =    30.000000
 CELL_TOP| Angle (b,c), alpha [degree]:                                90.000000
 CELL_TOP| Angle (a,c), beta  [degree]:                                90.000000
 CELL_TOP| Angle (a,b), gamma [degree]:                                90.000000
 CELL_TOP| Numerically orthorhombic:                                         YES
 CELL_TOP| Periodicity                                                      NONE

 GENERATE|  Preliminary Number of Bonds generated:                             0
 GENERATE|  Achieved consistency in connectivity generation.

 CELL| Volume [angstrom^3]:                                         27000.000000
 CELL| Vector a [angstrom]:      30.000     0.000     0.000   |a| =    30.000000
 CELL| Vector b [angstrom]:       0.000    30.000     0.000   |b| =    30.000000
 CELL| Vector c [angstrom]:       0.000     0.000    30.000   |c| =    30.000000
 CELL| Angle (b,c), alpha [degree]:                                    90.000000
 CELL| Angle (a,c), beta  [degree]:                                    90.000000
 CELL| Angle (a,b), gamma [degree]:                                    90.000000
 CELL| Numerically orthorhombic:                                             YES
 CELL| Periodicity                                                          NONE

 CELL_REF| Volume [angstrom^3]:                                     27000.000000
 CELL_REF| Vector a [angstrom    30.000     0.000     0.000   |a| =    30.000000
 CELL_REF| Vector b [angstrom     0.000    30.000     0.000   |b| =    30.000000
 CELL_REF| Vector c [angstrom     0.000     0.000    30.000   |c| =    30.000000
 CELL_REF| Angle (b,c), alpha [degree]:                                90.000000
 CELL_REF| Angle (a,c), beta  [degree]:                                90.000000
 CELL_REF| Angle (a,b), gamma [degree]:                                90.000000
 CELL_REF| Numerically orthorhombic:                                         YES
 CELL_REF| Periodicity                                                      NONE

 *******************************************************************************
 *******************************************************************************
 **                                                                           **
 **     #####                         ##              ##                      **
 **    ##   ##            ##          ##              ##                      **
 **   ##     ##                       ##            ######                    **
 **   ##     ##  ##   ##  ##   #####  ##  ##   ####   ##    #####    #####    **
 **   ##     ##  ##   ##  ##  ##      ## ##   ##      ##   ##   ##  ##   ##   **
 **   ##  ## ##  ##   ##  ##  ##      ####     ###    ##   ######   ######    **
 **    ##  ###   ##   ##  ##  ##      ## ##      ##   ##   ##       ##        **
 **     #######   #####   ##   #####  ##  ##  ####    ##    #####   ##        **
 **           ##                                                    ##        **
 **                                                                           **
 **                                                ... make the atoms dance   **
 **                                                                           **
 **            Copyright (C) by CP2K developers group (2000-2025)             **
 **                      J. Chem. Phys. 152, 194103 (2020)                    **
 **                                                                           **
 *******************************************************************************

 DFT| Spin restricted Kohn-Sham (RKS) calculation                            RKS
 DFT| Multiplicity                                                             1
 DFT| Number of spin states                                                    1
 DFT| Charge                                                                   0
 DFT| Self-interaction correction (SIC)                                       NO
 DFT| Cutoffs: density                                              1.000000E-10
 DFT|          gradient                                             1.000000E-10
 DFT|          tau                                                  1.000000E-10
 DFT|          cutoff_smoothing_range                               0.000000E+00
 DFT| XC density smoothing                                                  NONE
 DFT| XC derivatives                                                          PW

 FUNCTIONAL| PBE:
 FUNCTIONAL| J.P.Perdew, K.Burke, M.Ernzerhof, Phys. Rev. Letter, vol. 77, n 18,
 FUNCTIONAL|  pp. 3865-3868, (1996)sx=0.750sc=1.000{spin unpolarized}           


 QS| Method:                                                                GAPW
 QS| Density plane wave grid type                        NON-SPHERICAL FULLSPACE
 QS| Number of grid levels:                                                    4
 QS| Density cutoff [a.u.]:                                                250.0
 QS| Multi grid cutoff [a.u.]: 1) grid level                               250.0
 QS|                           2) grid level                                83.3
 QS|                           3) grid level                                27.8
 QS|                           4) grid level                                 9.3
 QS| Grid level progression factor:                                          3.0
 QS| Relative density cutoff [a.u.]:                                        50.0
 QS| Interaction thresholds: eps_pgf_orb:                                1.0E-12
 QS|                         eps_filter_matrix:                          0.0E+00
 QS|                         eps_core_charge:                            1.0E-14
 QS|                         eps_rho_gspace:                             1.0E-12
 QS|                         eps_rho_rspace:                             1.0E-12
 QS|                         eps_gvg_rspace:                             1.0E-06
 QS|                         eps_ppl:                                    1.0E-02
 QS|                         eps_ppnl:                                   1.0E-08
 QS| GAPW|      One center basis from orbital basis primitives
 QS| GAPW|                   eps_fit:                                    1.0E-04
 QS| GAPW|                   eps_iso:                                    1.0E-12
 QS| GAPW|                   eps_svd:                                    1.0E-08
 QS| GAPW|                   eps_cpc:                                    1.0E-12
 QS| GAPW|   atom-r-grid: quadrature:                                     GC_LOG
 QS| GAPW|      atom-s-grid:  max l :                                         10
 QS| GAPW|      max_l_rho0 :                                                   2


 ATOMIC KIND INFORMATION

  1. Atomic kind: S                                     Number of atoms:       1

     Orbital Basis Set                                               aug-cc-pV5Z

       Number of orbital shell sets:                                          12
       Number of orbital shells:                                              29
       Number of primitive Cartesian functions:                               48
       Number of Cartesian basis functions:                                  186
       Number of spherical basis functions:                                  131
       Norm type:                                                              2

       Normalised Cartesian orbitals:

                        Set   Shell   Orbital            Exponent    Coefficient

                          1       1    1px               0.029400       0.017353
                          1       1    1py               0.029400       0.017353
                          1       1    1pz               0.029400       0.017353

                          2       1    1s                0.042000       0.066122

                          3       1    1dx2              0.079400       0.019548
                          3       1    1dxy              0.079400       0.033858
                          3       1    1dxz              0.079400       0.033858
                          3       1    1dy2              0.079400       0.019548
                          3       1    1dyz              0.079400       0.033858
                          3       1    1dz2              0.079400       0.019548

                          4       1    1px            2200.000000       5.133994
                                                       521.400000       7.375833
                                                       169.000000       9.759369
                                                        64.050000      11.382094
                                                        26.720000      11.185118
                                                        11.830000       8.415060
                                                         5.378000       4.419868
                                                         2.482000       1.317879
                                                         1.116000       0.127478
                                                         0.484800       0.001183
                                                         0.200600       0.000275
                                                         0.079510      -0.000004
                          4       1    1py            2200.000000       5.133994
                                                       521.400000       7.375833
                                                       169.000000       9.759369
                                                        64.050000      11.382094
                                                        26.720000      11.185118
                                                        11.830000       8.415060
                                                         5.378000       4.419868
                                                         2.482000       1.317879
                                                         1.116000       0.127478
                                                         0.484800       0.001183
                                                         0.200600       0.000275
                                                         0.079510      -0.000004
                          4       1    1pz            2200.000000       5.133994
                                                       521.400000       7.375833
                                                       169.000000       9.759369
                                                        64.050000      11.382094
                                                        26.720000      11.185118
                                                        11.830000       8.415060
                                                         5.378000       4.419868
                                                         2.482000       1.317879
                                                         1.116000       0.127478
                                                         0.484800       0.001183
                                                         0.200600       0.000275
                                                         0.079510      -0.000004

                          4       2    2px            2200.000000       0.000000
                                                       521.400000       0.000000
                                                       169.000000       0.000000
                                                        64.050000       0.000000
                                                        26.720000       0.000000
                                                        11.830000       0.000000
                                                         5.378000       0.000000
                                                         2.482000       0.000000
                                                         1.116000       1.635010
                                                         0.484800       0.000000
                                                         0.200600       0.000000
                                                         0.079510       0.000000
                          4       2    2py            2200.000000       0.000000
                                                       521.400000       0.000000
                                                       169.000000       0.000000
                                                        64.050000       0.000000
                                                        26.720000       0.000000
                                                        11.830000       0.000000
                                                         5.378000       0.000000
                                                         2.482000       0.000000
                                                         1.116000       1.635010
                                                         0.484800       0.000000
                                                         0.200600       0.000000
                                                         0.079510       0.000000
                          4       2    2pz            2200.000000       0.000000
                                                       521.400000       0.000000
                                                       169.000000       0.000000
                                                        64.050000       0.000000
                                                        26.720000       0.000000
                                                        11.830000       0.000000
                                                         5.378000       0.000000
                                                         2.482000       0.000000
                                                         1.116000       1.635010
                                                         0.484800       0.000000
                                                         0.200600       0.000000
                                                         0.079510       0.000000

                          4       3    3px            2200.000000       0.000000
                                                       521.400000       0.000000
                                                       169.000000       0.000000
                                                        64.050000       0.000000
                                                        26.720000       0.000000
                                                        11.830000       0.000000
                                                         5.378000       0.000000
                                                         2.482000       0.000000
                                                         1.116000       0.000000
                                                         0.484800       0.576625
                                                         0.200600       0.000000
                                                         0.079510       0.000000
                          4       3    3py            2200.000000       0.000000
                                                       521.400000       0.000000
                                                       169.000000       0.000000
                                                        64.050000       0.000000
                                                        26.720000       0.000000
                                                        11.830000       0.000000
                                                         5.378000       0.000000
                                                         2.482000       0.000000
                                                         1.116000       0.000000
                                                         0.484800       0.576625
                                                         0.200600       0.000000
                                                         0.079510       0.000000
                          4       3    3pz            2200.000000       0.000000
                                                       521.400000       0.000000
                                                       169.000000       0.000000
                                                        64.050000       0.000000
                                                        26.720000       0.000000
                                                        11.830000       0.000000
                                                         5.378000       0.000000
                                                         2.482000       0.000000
                                                         1.116000       0.000000
                                                         0.484800       0.576625
                                                         0.200600       0.000000
                                                         0.079510       0.000000

                          4       4    4px            2200.000000      -1.306993
                                                       521.400000      -1.883748
                                                       169.000000      -2.500706
                                                        64.050000      -2.954633
                                                        26.720000      -2.968115
                                                        11.830000      -2.301109
                                                         5.378000      -1.258236
                                                         2.482000      -0.390671
                                                         1.116000       0.177008
                                                         0.484800       0.234734
                                                         0.200600       0.089747
                                                         0.079510       0.011126
                          4       4    4py            2200.000000      -1.306993
                                                       521.400000      -1.883748
                                                       169.000000      -2.500706
                                                        64.050000      -2.954633
                                                        26.720000      -2.968115
                                                        11.830000      -2.301109
                                                         5.378000      -1.258236
                                                         2.482000      -0.390671
                                                         1.116000       0.177008
                                                         0.484800       0.234734
                                                         0.200600       0.089747
                                                         0.079510       0.011126
                          4       4    4pz            2200.000000      -1.306993
                                                       521.400000      -1.883748
                                                       169.000000      -2.500706
                                                        64.050000      -2.954633
                                                        26.720000      -2.968115
                                                        11.830000      -2.301109
                                                         5.378000      -1.258236
                                                         2.482000      -0.390671
                                                         1.116000       0.177008
                                                         0.484800       0.234734
                                                         0.200600       0.089747
                                                         0.079510       0.011126

                          4       5    5px            2200.000000       0.000000
                                                       521.400000       0.000000
                                                       169.000000       0.000000
                                                        64.050000       0.000000
                                                        26.720000       0.000000
                                                        11.830000       0.000000
                                                         5.378000       0.000000
                                                         2.482000       0.000000
                                                         1.116000       0.000000
                                                         0.484800       0.000000
                                                         0.200600       0.191361
                                                         0.079510       0.000000
                          4       5    5py            2200.000000       0.000000
                                                       521.400000       0.000000
                                                       169.000000       0.000000
                                                        64.050000       0.000000
                                                        26.720000       0.000000
                                                        11.830000       0.000000
                                                         5.378000       0.000000
                                                         2.482000       0.000000
                                                         1.116000       0.000000
                                                         0.484800       0.000000
                                                         0.200600       0.191361
                                                         0.079510       0.000000
                          4       5    5pz            2200.000000       0.000000
                                                       521.400000       0.000000
                                                       169.000000       0.000000
                                                        64.050000       0.000000
                                                        26.720000       0.000000
                                                        11.830000       0.000000
                                                         5.378000       0.000000
                                                         2.482000       0.000000
                                                         1.116000       0.000000
                                                         0.484800       0.000000
                                                         0.200600       0.191361
                                                         0.079510       0.000000

                          4       6    6px            2200.000000       0.000000
                                                       521.400000       0.000000
                                                       169.000000       0.000000
                                                        64.050000       0.000000
                                                        26.720000       0.000000
                                                        11.830000       0.000000
                                                         5.378000       0.000000
                                                         2.482000       0.000000
                                                         1.116000       0.000000
                                                         0.484800       0.000000
                                                         0.200600       0.000000
                                                         0.079510       0.060182
                          4       6    6py            2200.000000       0.000000
                                                       521.400000       0.000000
                                                       169.000000       0.000000
                                                        64.050000       0.000000
                                                        26.720000       0.000000
                                                        11.830000       0.000000
                                                         5.378000       0.000000
                                                         2.482000       0.000000
                                                         1.116000       0.000000
                                                         0.484800       0.000000
                                                         0.200600       0.000000
                                                         0.079510       0.060182
                          4       6    6pz            2200.000000       0.000000
                                                       521.400000       0.000000
                                                       169.000000       0.000000
                                                        64.050000       0.000000
                                                        26.720000       0.000000
                                                        11.830000       0.000000
                                                         5.378000       0.000000
                                                         2.482000       0.000000
                                                         1.116000       0.000000
                                                         0.484800       0.000000
                                                         0.200600       0.000000
                                                         0.079510       0.060182

                          5       1    1s          5481000.000000       0.152860
                                                    820600.000000       0.286055
                                                    186700.000000       0.496155
                                                     52880.000000       0.813250
                                                     17250.000000       1.280498
                                                      6226.000000       1.940164
                                                      2429.000000       2.844106
                                                      1007.000000       3.984527
                                                       439.500000       5.229289
                                                       199.800000       6.162321
                                                        93.920000       6.006109
                                                        45.340000       4.148629
                                                        22.150000       1.526935
                                                        10.340000       0.170949
                                                         5.119000      -0.001093
                                                         2.553000       0.002431
                                                         1.282000      -0.000444
                                                         0.545000       0.000085
                                                         0.241100      -0.000024
                                                         0.103500       0.000003

                          5       2    2s          5481000.000000      -0.042217
                                                    820600.000000      -0.079026
                                                    186700.000000      -0.137029
                                                     52880.000000      -0.224805
                                                     17250.000000      -0.354096
                                                      6226.000000      -0.538410
                                                      2429.000000      -0.793719
                                                      1007.000000      -1.130348
                                                       439.500000      -1.530851
                                                       199.800000      -1.933828
                                                        93.920000      -2.155037
                                                        45.340000      -1.952555
                                                        22.150000      -1.016918
                                                        10.340000       0.332903
                                                         5.119000       1.045101
                                                         2.553000       0.693368
                                                         1.282000       0.134693
                                                         0.545000       0.003566
                                                         0.241100       0.000097
                                                         0.103500       0.000029

                          5       3    3s          5481000.000000       0.000000
                                                    820600.000000       0.000000
                                                    186700.000000       0.000000
                                                     52880.000000       0.000000
                                                     17250.000000       0.000000
                                                      6226.000000       0.000000
                                                      2429.000000       0.000000
                                                      1007.000000       0.000000
                                                       439.500000       0.000000
                                                       199.800000       0.000000
                                                        93.920000       0.000000
                                                        45.340000       0.000000
                                                        22.150000       0.000000
                                                        10.340000       0.000000
                                                         5.119000       0.000000
                                                         2.553000       0.000000
                                                         1.282000       0.858670
                                                         0.545000       0.000000
                                                         0.241100       0.000000
                                                         0.103500       0.000000

                          5       4    4s          5481000.000000       0.000000
                                                    820600.000000       0.000000
                                                    186700.000000       0.000000
                                                     52880.000000       0.000000
                                                     17250.000000       0.000000
                                                      6226.000000       0.000000
                                                      2429.000000       0.000000
                                                      1007.000000       0.000000
                                                       439.500000       0.000000
                                                       199.800000       0.000000
                                                        93.920000       0.000000
                                                        45.340000       0.000000
                                                        22.150000       0.000000
                                                        10.340000       0.000000
                                                         5.119000       0.000000
                                                         2.553000       0.000000
                                                         1.282000       0.000000
                                                         0.545000       0.452072
                                                         0.241100       0.000000
                                                         0.103500       0.000000

                          5       5    5s          5481000.000000       0.000000
                                                    820600.000000       0.000000
                                                    186700.000000       0.000000
                                                     52880.000000       0.000000
                                                     17250.000000       0.000000
                                                      6226.000000       0.000000
                                                      2429.000000       0.000000
                                                      1007.000000       0.000000
                                                       439.500000       0.000000
                                                       199.800000       0.000000
                                                        93.920000       0.000000
                                                        45.340000       0.000000
                                                        22.150000       0.000000
                                                        10.340000       0.000000
                                                         5.119000       0.000000
                                                         2.553000       0.000000
                                                         1.282000       0.000000
                                                         0.545000       0.000000
                                                         0.241100       0.245221
                                                         0.103500       0.000000

                          5       6    6s          5481000.000000       0.012257
                                                    820600.000000       0.022931
                                                    186700.000000       0.039797
                                                     52880.000000       0.065215
                                                     17250.000000       0.102882
                                                      6226.000000       0.156194
                                                      2429.000000       0.230890
                                                      1007.000000       0.328434
                                                       439.500000       0.447494
                                                       199.800000       0.566729
                                                        93.920000       0.642780
                                                        45.340000       0.593937
                                                        22.150000       0.327133
                                                        10.340000      -0.120415
                                                         5.119000      -0.409703
                                                         2.553000      -0.447691
                                                         1.282000      -0.117201
                                                         0.545000       0.191314
                                                         0.241100       0.150538
                                                         0.103500       0.026072

                          5       7    7s          5481000.000000       0.000000
                                                    820600.000000       0.000000
                                                    186700.000000       0.000000
                                                     52880.000000       0.000000
                                                     17250.000000       0.000000
                                                      6226.000000       0.000000
                                                      2429.000000       0.000000
                                                      1007.000000       0.000000
                                                       439.500000       0.000000
                                                       199.800000       0.000000
                                                        93.920000       0.000000
                                                        45.340000       0.000000
                                                        22.150000       0.000000
                                                        10.340000       0.000000
                                                         5.119000       0.000000
                                                         2.553000       0.000000
                                                         1.282000       0.000000
                                                         0.545000       0.000000
                                                         0.241100       0.000000
                                                         0.103500       0.130051

                          6       1    1fx3              0.118800       0.012198
                          6       1    1fx2y             0.118800       0.027276
                          6       1    1fx2z             0.118800       0.027276
                          6       1    1fxy2             0.118800       0.027276
                          6       1    1fxyz             0.118800       0.047243
                          6       1    1fxz2             0.118800       0.027276
                          6       1    1fy3              0.118800       0.012198
                          6       1    1fy2z             0.118800       0.027276
                          6       1    1fyz2             0.118800       0.027276
                          6       1    1fz3              0.118800       0.012198

                          7       1    1dx2              3.203000      12.622172
                                                         1.281000       0.000000
                                                         0.512000       0.000000
                                                         0.205000       0.000000
                          7       1    1dxy              3.203000      21.862243
                                                         1.281000       0.000000
                                                         0.512000       0.000000
                                                         0.205000       0.000000
                          7       1    1dxz              3.203000      21.862243
                                                         1.281000       0.000000
                                                         0.512000       0.000000
                                                         0.205000       0.000000
                          7       1    1dy2              3.203000      12.622172
                                                         1.281000       0.000000
                                                         0.512000       0.000000
                                                         0.205000       0.000000
                          7       1    1dyz              3.203000      21.862243
                                                         1.281000       0.000000
                                                         0.512000       0.000000
                                                         0.205000       0.000000
                          7       1    1dz2              3.203000      12.622172
                                                         1.281000       0.000000
                                                         0.512000       0.000000
                                                         0.205000       0.000000

                          7       2    2dx2              3.203000       0.000000
                                                         1.281000       2.538753
                                                         0.512000       0.000000
                                                         0.205000       0.000000
                          7       2    2dxy              3.203000       0.000000
                                                         1.281000       4.397249
                                                         0.512000       0.000000
                                                         0.205000       0.000000
                          7       2    2dxz              3.203000       0.000000
                                                         1.281000       4.397249
                                                         0.512000       0.000000
                                                         0.205000       0.000000
                          7       2    2dy2              3.203000       0.000000
                                                         1.281000       2.538753
                                                         0.512000       0.000000
                                                         0.205000       0.000000
                          7       2    2dyz              3.203000       0.000000
                                                         1.281000       4.397249
                                                         0.512000       0.000000
                                                         0.205000       0.000000
                          7       2    2dz2              3.203000       0.000000
                                                         1.281000       2.538753
                                                         0.512000       0.000000
                                                         0.205000       0.000000

                          7       3    3dx2              3.203000       0.000000
                                                         1.281000       0.000000
                                                         0.512000       0.510072
                                                         0.205000       0.000000
                          7       3    3dxy              3.203000       0.000000
                                                         1.281000       0.000000
                                                         0.512000       0.883471
                                                         0.205000       0.000000
                          7       3    3dxz              3.203000       0.000000
                                                         1.281000       0.000000
                                                         0.512000       0.883471
                                                         0.205000       0.000000
                          7       3    3dy2              3.203000       0.000000
                                                         1.281000       0.000000
                                                         0.512000       0.510072
                                                         0.205000       0.000000
                          7       3    3dyz              3.203000       0.000000
                                                         1.281000       0.000000
                                                         0.512000       0.883471
                                                         0.205000       0.000000
                          7       3    3dz2              3.203000       0.000000
                                                         1.281000       0.000000
                                                         0.512000       0.510072
                                                         0.205000       0.000000

                          7       4    4dx2              3.203000       0.000000
                                                         1.281000       0.000000
                                                         0.512000       0.000000
                                                         0.205000       0.102797
                          7       4    4dxy              3.203000       0.000000
                                                         1.281000       0.000000
                                                         0.512000       0.000000
                                                         0.205000       0.178049
                          7       4    4dxz              3.203000       0.000000
                                                         1.281000       0.000000
                                                         0.512000       0.000000
                                                         0.205000       0.178049
                          7       4    4dy2              3.203000       0.000000
                                                         1.281000       0.000000
                                                         0.512000       0.000000
                                                         0.205000       0.102797
                          7       4    4dyz              3.203000       0.000000
                                                         1.281000       0.000000
                                                         0.512000       0.000000
                                                         0.205000       0.178049
                          7       4    4dz2              3.203000       0.000000
                                                         1.281000       0.000000
                                                         0.512000       0.000000
                                                         0.205000       0.102797

                          8       1    1gx4              0.220000       0.017302
                          8       1    1gx3y             0.220000       0.045777
                          8       1    1gx3z             0.220000       0.045777
                          8       1    1gx2y2            0.220000       0.059098
                          8       1    1gx2yz            0.220000       0.102360
                          8       1    1gx2z2            0.220000       0.059098
                          8       1    1gxy3             0.220000       0.045777
                          8       1    1gxy2z            0.220000       0.102360
                          8       1    1gxyz2            0.220000       0.102360
                          8       1    1gxz3             0.220000       0.045777
                          8       1    1gy4              0.220000       0.017302
                          8       1    1gy3z             0.220000       0.045777
                          8       1    1gy2z2            0.220000       0.059098
                          8       1    1gyz3             0.220000       0.045777
                          8       1    1gz4              0.220000       0.017302

                          9       1    1fx3              1.096000       1.809373
                                                         0.529000       0.000000
                                                         0.255000       0.000000
                          9       1    1fx2y             1.096000       4.045882
                                                         0.529000       0.000000
                                                         0.255000       0.000000
                          9       1    1fx2z             1.096000       4.045882
                                                         0.529000       0.000000
                                                         0.255000       0.000000
                          9       1    1fxy2             1.096000       4.045882
                                                         0.529000       0.000000
                                                         0.255000       0.000000
                          9       1    1fxyz             1.096000       7.007673
                                                         0.529000       0.000000
                                                         0.255000       0.000000
                          9       1    1fxz2             1.096000       4.045882
                                                         0.529000       0.000000
                                                         0.255000       0.000000
                          9       1    1fy3              1.096000       1.809373
                                                         0.529000       0.000000
                                                         0.255000       0.000000
                          9       1    1fy2z             1.096000       4.045882
                                                         0.529000       0.000000
                                                         0.255000       0.000000
                          9       1    1fyz2             1.096000       4.045882
                                                         0.529000       0.000000
                                                         0.255000       0.000000
                          9       1    1fz3              1.096000       1.809373
                                                         0.529000       0.000000
                                                         0.255000       0.000000

                          9       2    2fx3              1.096000       0.000000
                                                         0.529000       0.351342
                                                         0.255000       0.000000
                          9       2    2fx2y             1.096000       0.000000
                                                         0.529000       0.785624
                                                         0.255000       0.000000
                          9       2    2fx2z             1.096000       0.000000
                                                         0.529000       0.785624
                                                         0.255000       0.000000
                          9       2    2fxy2             1.096000       0.000000
                                                         0.529000       0.785624
                                                         0.255000       0.000000
                          9       2    2fxyz             1.096000       0.000000
                                                         0.529000       1.360741
                                                         0.255000       0.000000
                          9       2    2fxz2             1.096000       0.000000
                                                         0.529000       0.785624
                                                         0.255000       0.000000
                          9       2    2fy3              1.096000       0.000000
                                                         0.529000       0.351342
                                                         0.255000       0.000000
                          9       2    2fy2z             1.096000       0.000000
                                                         0.529000       0.785624
                                                         0.255000       0.000000
                          9       2    2fyz2             1.096000       0.000000
                                                         0.529000       0.785624
                                                         0.255000       0.000000
                          9       2    2fz3              1.096000       0.000000
                                                         0.529000       0.351342
                                                         0.255000       0.000000

                          9       3    3fx3              1.096000       0.000000
                                                         0.529000       0.000000
                                                         0.255000       0.068025
                          9       3    3fx2y             1.096000       0.000000
                                                         0.529000       0.000000
                                                         0.255000       0.152109
                          9       3    3fx2z             1.096000       0.000000
                                                         0.529000       0.000000
                                                         0.255000       0.152109
                          9       3    3fxy2             1.096000       0.000000
                                                         0.529000       0.000000
                                                         0.255000       0.152109
                          9       3    3fxyz             1.096000       0.000000
                                                         0.529000       0.000000
                                                         0.255000       0.263460
                          9       3    3fxz2             1.096000       0.000000
                                                         0.529000       0.000000
                                                         0.255000       0.152109
                          9       3    3fy3              1.096000       0.000000
                                                         0.529000       0.000000
                                                         0.255000       0.068025
                          9       3    3fy2z             1.096000       0.000000
                                                         0.529000       0.000000
                                                         0.255000       0.152109
                          9       3    3fyz2             1.096000       0.000000
                                                         0.529000       0.000000
                                                         0.255000       0.152109
                          9       3    3fz3              1.096000       0.000000
                                                         0.529000       0.000000
                                                         0.255000       0.068025

                         10       1    1gx4              1.071000       1.343868
                                                         0.463000       0.000000
                         10       1    1gx3y             1.071000       3.555539
                                                         0.463000       0.000000
                         10       1    1gx3z             1.071000       3.555539
                                                         0.463000       0.000000
                         10       1    1gx2y2            1.071000       4.590182
                                                         0.463000       0.000000
                         10       1    1gx2yz            1.071000       7.950428
                                                         0.463000       0.000000
                         10       1    1gx2z2            1.071000       4.590182
                                                         0.463000       0.000000
                         10       1    1gxy3             1.071000       3.555539
                                                         0.463000       0.000000
                         10       1    1gxy2z            1.071000       7.950428
                                                         0.463000       0.000000
                         10       1    1gxyz2            1.071000       7.950428
                                                         0.463000       0.000000
                         10       1    1gxz3             1.071000       3.555539
                                                         0.463000       0.000000
                         10       1    1gy4              1.071000       1.343868
                                                         0.463000       0.000000
                         10       1    1gy3z             1.071000       3.555539
                                                         0.463000       0.000000
                         10       1    1gy2z2            1.071000       4.590182
                                                         0.463000       0.000000
                         10       1    1gyz3             1.071000       3.555539
                                                         0.463000       0.000000
                         10       1    1gz4              1.071000       1.343868
                                                         0.463000       0.000000

                         10       2    2gx4              1.071000       0.000000
                                                         0.463000       0.133901
                         10       2    2gx3y             1.071000       0.000000
                                                         0.463000       0.354268
                         10       2    2gx3z             1.071000       0.000000
                                                         0.463000       0.354268
                         10       2    2gx2y2            1.071000       0.000000
                                                         0.463000       0.457358
                         10       2    2gx2yz            1.071000       0.000000
                                                         0.463000       0.792168
                         10       2    2gx2z2            1.071000       0.000000
                                                         0.463000       0.457358
                         10       2    2gxy3             1.071000       0.000000
                                                         0.463000       0.354268
                         10       2    2gxy2z            1.071000       0.000000
                                                         0.463000       0.792168
                         10       2    2gxyz2            1.071000       0.000000
                                                         0.463000       0.792168
                         10       2    2gxz3             1.071000       0.000000
                                                         0.463000       0.354268
                         10       2    2gy4              1.071000       0.000000
                                                         0.463000       0.133901
                         10       2    2gy3z             1.071000       0.000000
                                                         0.463000       0.354268
                         10       2    2gy2z2            1.071000       0.000000
                                                         0.463000       0.457358
                         10       2    2gyz3             1.071000       0.000000
                                                         0.463000       0.354268
                         10       2    2gz4              1.071000       0.000000
                                                         0.463000       0.133901

                         11       1    1hx5              0.472000       0.064663
                         11       1    1hx4y             0.472000       0.193989
                         11       1    1hx4z             0.472000       0.193989
                         11       1    1hx3y2            0.472000       0.296323
                         11       1    1hx3yz            0.472000       0.513246
                         11       1    1hx3z2            0.472000       0.296323
                         11       1    1hx2y3            0.472000       0.296323
                         11       1    1hx2y2z           0.472000       0.662598
                         11       1    1hx2yz2           0.472000       0.662598
                         11       1    1hx2z3            0.472000       0.296323
                         11       1    1hxy4             0.472000       0.193989
                         11       1    1hxy3z            0.472000       0.513246
                         11       1    1hxy2z2           0.472000       0.662598
                         11       1    1hxyz3            0.472000       0.513246
                         11       1    1hxz4             0.472000       0.193989
                         11       1    1hy5              0.472000       0.064663
                         11       1    1hy4z             0.472000       0.193989
                         11       1    1hy3z2            0.472000       0.296323
                         11       1    1hy2z3            0.472000       0.296323
                         11       1    1hyz4             0.472000       0.193989
                         11       1    1hz5              0.472000       0.064663

                         12       1    1hx5              0.872000       0.475360
                         12       1    1hx4y             0.872000       1.426080
                         12       1    1hx4z             0.872000       1.426080
                         12       1    1hx3y2            0.872000       2.178374
                         12       1    1hx3yz            0.872000       3.773054
                         12       1    1hx3z2            0.872000       2.178374
                         12       1    1hx2y3            0.872000       2.178374
                         12       1    1hx2y2z           0.872000       4.870992
                         12       1    1hx2yz2           0.872000       4.870992
                         12       1    1hx2z3            0.872000       2.178374
                         12       1    1hxy4             0.872000       1.426080
                         12       1    1hxy3z            0.872000       3.773054
                         12       1    1hxy2z2           0.872000       4.870992
                         12       1    1hxyz3            0.872000       3.773054
                         12       1    1hxz4             0.872000       1.426080
                         12       1    1hy5              0.872000       0.475360
                         12       1    1hy4z             0.872000       1.426080
                         12       1    1hy3z2            0.872000       2.178374
                         12       1    1hy2z3            0.872000       2.178374
                         12       1    1hyz4             0.872000       1.426080
                         12       1    1hz5              0.872000       0.475360

     RI Auxiliary Basis Set                                    aug-cc-pV5Z-OPTRI

       Number of orbital shell sets:                                          24
       Number of orbital shells:                                              24
       Number of primitive Cartesian functions:                               24
       Number of Cartesian basis functions:                                  195
       Number of spherical basis functions:                                  128
       Norm type:                                                              2

       Normalised Cartesian orbitals:

                        Set   Shell   Orbital            Exponent    Coefficient

                          1       1    1s                0.155161       0.176196

                          2       1    1dx2              0.292382       0.191348
                          2       1    1dxy              0.292382       0.331424
                          2       1    1dxz              0.292382       0.331424
                          2       1    1dy2              0.292382       0.191348
                          2       1    1dyz              0.292382       0.331424
                          2       1    1dz2              0.292382       0.191348

                          3       1    1px               0.314817       0.336134
                          3       1    1py               0.314817       0.336134
                          3       1    1pz               0.314817       0.336134

                          4       1    1gx4              0.319099       0.048109
                          4       1    1gx3y             0.319099       0.127286
                          4       1    1gx3z             0.319099       0.127286
                          4       1    1gx2y2            0.319099       0.164325
                          4       1    1gx2yz            0.319099       0.284619
                          4       1    1gx2z2            0.319099       0.164325
                          4       1    1gxy3             0.319099       0.127286
                          4       1    1gxy2z            0.319099       0.284619
                          4       1    1gxyz2            0.319099       0.284619
                          4       1    1gxz3             0.319099       0.127286
                          4       1    1gy4              0.319099       0.048109
                          4       1    1gy3z             0.319099       0.127286
                          4       1    1gy2z2            0.319099       0.164325
                          4       1    1gyz3             0.319099       0.127286
                          4       1    1gz4              0.319099       0.048109

                          5       1    1s                0.360347       0.331475

                          6       1    1dx2              0.623460       0.719987
                          6       1    1dxy              0.623460       1.247054
                          6       1    1dxz              0.623460       1.247054
                          6       1    1dy2              0.623460       0.719987
                          6       1    1dyz              0.623460       1.247054
                          6       1    1dz2              0.623460       0.719987

                          7       1    1hx5              0.641004       0.174840
                          7       1    1hx4y             0.641004       0.524521
                          7       1    1hx4z             0.641004       0.524521
                          7       1    1hx3y2            0.641004       0.801219
                          7       1    1hx3yz            0.641004       1.387752
                          7       1    1hx3z2            0.641004       0.801219
                          7       1    1hx2y3            0.641004       0.801219
                          7       1    1hx2y2z           0.641004       1.791580
                          7       1    1hx2yz2           0.641004       1.791580
                          7       1    1hx2z3            0.641004       0.801219
                          7       1    1hxy4             0.641004       0.524521
                          7       1    1hxy3z            0.641004       1.387752
                          7       1    1hxy2z2           0.641004       1.791580
                          7       1    1hxyz3            0.641004       1.387752
                          7       1    1hxz4             0.641004       0.524521
                          7       1    1hy5              0.641004       0.174840
                          7       1    1hy4z             0.641004       0.524521
                          7       1    1hy3z2            0.641004       0.801219
                          7       1    1hy2z3            0.641004       0.801219
                          7       1    1hyz4             0.641004       0.524521
                          7       1    1hz5              0.641004       0.174840

                          8       1    1gx4              0.693087       0.406071
                          8       1    1gx3y             0.693087       1.074362
                          8       1    1gx3z             0.693087       1.074362
                          8       1    1gx2y2            0.693087       1.386996
                          8       1    1gx2yz            0.693087       2.402347
                          8       1    1gx2z2            0.693087       1.386996
                          8       1    1gxy3             0.693087       1.074362
                          8       1    1gxy2z            0.693087       2.402347
                          8       1    1gxyz2            0.693087       2.402347
                          8       1    1gxz3             0.693087       1.074362
                          8       1    1gy4              0.693087       0.406071
                          8       1    1gy3z             0.693087       1.074362
                          8       1    1gy2z2            0.693087       1.386996
                          8       1    1gyz3             0.693087       1.074362
                          8       1    1gz4              0.693087       0.406071

                          9       1    1px               0.725771       0.954860
                          9       1    1py               0.725771       0.954860
                          9       1    1pz               0.725771       0.954860

                         10       1    1s                0.823259       0.615974

                         11       1    1ix6              0.967601       0.395402
                         11       1    1ix5y             0.967601       1.311400
                         11       1    1ix5z             0.967601       1.311400
                         11       1    1ix4y2            0.967601       2.271412
                         11       1    1ix4yz            0.967601       3.934201
                         11       1    1ix4z2            0.967601       2.271412
                         11       1    1ix3y3            0.967601       2.687571
                         11       1    1ix3y2z           0.967601       6.009592
                         11       1    1ix3yz2           0.967601       6.009592
                         11       1    1ix3z3            0.967601       2.687571
                         11       1    1ix2y4            0.967601       2.271412
                         11       1    1ix2y3z           0.967601       6.009592
                         11       1    1ix2y2z2          0.967601       7.758350
                         11       1    1ix2yz3           0.967601       6.009592
                         11       1    1ix2z4            0.967601       2.271412
                         11       1    1ixy5             0.967601       1.311400
                         11       1    1ixy4z            0.967601       3.934201
                         11       1    1ixy3z2           0.967601       6.009592
                         11       1    1ixy2z3           0.967601       6.009592
                         11       1    1ixyz4            0.967601       3.934201
                         11       1    1ixz5             0.967601       1.311400
                         11       1    1iy6              0.967601       0.395402
                         11       1    1iy5z             0.967601       1.311400
                         11       1    1iy4z2            0.967601       2.271412
                         11       1    1iy3z3            0.967601       2.687571
                         11       1    1iy2z4            0.967601       2.271412
                         11       1    1iyz5             0.967601       1.311400
                         11       1    1iz6              0.967601       0.395402

                         12       1    1hx5              1.396358       2.195754
[...]

 U. Borstnik, J. VandeVondele, V. Weber, J. Hutter.
 Parallel Comput. 40, 47-58 (2014).
 Sparse matrix multiplication: The distributed block-compressed sparse row 
 library.
 https://doi.org/10.1016/j.parco.2014.03.012

 M. Guidon, J. Hutter, J. VandeVondele.
 J. Chem. Theory Comput. 5, 3010-3021 (2009).
 Robust Periodic Hartree-Fock Exchange for Large-Scale Simulations Using 
 Gaussian Basis Sets.
 https://doi.org/10.1021/ct900494g

 M. Guidon, F. Schiffmann, J. Hutter, J. VandeVondele.
 J. Chem. Phys. 128, 214104 (2008).
 Ab initio molecular dynamics using hybrid density functionals.
 https://doi.org/10.1063/1.2931945

 L. Genovese, T. Deutsch, S. Goedecker.
 J. Chem. Phys. 127, 054704 (2007).
 Efficient and accurate three-dimensional Poisson solver for surface problems.
 https://doi.org/10.1063/1.2754685

 J. VandeVondele, J. Hutter.
 J. Chem. Phys. 127, 114105 (2007).
 Gaussian basis sets for accurate calculations on molecular systems in gas and 
 condensed phases.
 https://doi.org/10.1063/1.2770708

 L. Genovese, T. Deutsch, A. Neelov, S. Goedecker, G. Beylkin.
 J. Chem. Phys. 125, 074105 (2006).
 Efficient solution of Poisson's equation with free boundary conditions.
 https://doi.org/10.1063/1.2335442

 M. Iannuzzi, T. Chassaing, T. Wallman, J. Hutter.
 CHIMIA 59, 499-503 (2005).
 Ground and excited state density functional calculations with the Gaussian and 
 augmented-plane-wave method.
 https://doi.org/10.2533/000942905777676164

 M. Frigo, S. G. Johnson.
 Proc. IEEE 93, 216-231 (2005).
 The design and implementation of FFTW3.
 https://doi.org/10.1109/JPROC.2004.840301

 R. L. Martin.
 J. Chem. Phys. 118, 4775-4777 (2003).
 Natural transition orbitals.
 https://doi.org/10.1063/1.1558471

 M. Krack, M. Parrinello.
 Phys. Chem. Chem. Phys. 2, 2105-2112 (2000).
 All-electron ab-initio molecular dynamics.
 https://doi.org/10.1039/b001167n

 G. Lippert, J. Hutter, M. Parrinello.
 Theor. Chem. Acc. 103, 124-140 (1999).
 The Gaussian and augmented-plane-wave density functional method for ab initio 
 molecular dynamics simulations.
 https://doi.org/10.1007/s002140050523

 J. P. Perdew, K. Burke, M. Ernzerhof.
 Phys. Rev. Lett. 77, 3865-3868 (1996).
 Generalized gradient approximation made simple.
 https://doi.org/10.1103/PhysRevLett.77.3865


 -------------------------------------------------------------------------------
 -                                                                             -
 -                                T I M I N G                                  -
 -                                                                             -
 -------------------------------------------------------------------------------
 SUBROUTINE                       CALLS  ASD         SELF TIME        TOTAL TIME
                                MAXIMUM       AVERAGE  MAXIMUM  AVERAGE  MAXIMUM
 CP2K                                 1  1.0    0.262    0.399 3292.259 3292.260
 qs_energies                          1  2.0    0.000    0.001 3287.814 3287.817
 integrate_four_center              479  9.8   30.015   42.301 2493.785 2495.624
 scf_env_do_scf                       1  3.0    0.000    0.000 1886.199 1886.269
 scf_env_do_scf_inner_loop           79  4.0    0.002    0.006 1886.199 1886.269
 qs_ks_update_qs_env                 79  5.0    0.001    0.001 1823.664 1824.191
 rebuild_ks_matrix                   79  6.0    0.000    0.000 1823.646 1824.174
 qs_ks_build_kohn_sham_matrix        79  7.0    0.011    0.012 1823.646 1824.174
 integrate_four_center_main         479 10.8   64.824  229.337 1072.143 1697.884
 hfx_ks_matrix                       79  8.0    0.004    0.004 1656.419 1656.720
 integrate_four_center_bin       192038 11.9 1007.319 1604.505 1007.319 1604.505
 qs_energies_properties               1  3.0    0.000    0.000 1394.260 1394.263
 tddfpt                               1  4.0    0.000    0.001 1394.260 1394.263
 tddfpt_energies                      1  5.0    0.000    0.000 1393.598 1393.598
 tddfpt_davidson_solver               1  6.0    0.002    0.003 1380.632 1380.633
 tddfpt_compute_Aop_evects           10  7.0    0.000    0.000 1371.792 1371.794
 mp_sync                           5894 13.5  860.123 1038.936  860.123 1038.936
 tddfpt_apply_hfx                    10  8.0    0.005    0.006  854.203  854.205
 tddft_hfx_matrix                   400  9.0    0.013    0.015  837.387  839.005
 fhxc_kernel                         10  8.0    0.008    0.009  513.257  513.257
 calc_screening_functions             1 10.0  362.237  374.169  392.524  404.707
 prepare_gapw_den                   280  8.7    0.013    0.017  231.793  231.870
 calculate_rho_atom                1680  9.7   36.927  194.979   36.927  194.980
 tddfpt_apply_coulomb               200  9.0    0.003    0.003  185.147  186.205
 mp_sum_dv                        51002  8.8  162.647  167.381  162.647  167.381
 gaVxcgb_GC                         837  9.7    1.319  160.505    1.319  160.505
 pw_poisson_solve                   279  9.4    0.908    1.088  147.649  148.702
 fft_wrap_pw1pw2                   5673 11.1    0.058    0.070  145.227  146.744
 fft_wrap_pw1pw2_250               3993 12.1    0.821    0.888  141.819  143.389
 fft3d_pb                          3993 13.1    2.986    3.505  139.896  141.414
 mp_waitall_1                   1146262 12.9  102.543  141.298  102.543  141.298
 mp_alltoall_z22v                  9666 15.1  136.787  138.839  136.787  138.839
 cube_transpose_1                  2873 13.8    0.195    0.265  122.128  128.979
 cube_transpose_3                  2036 13.7    0.195    0.265    8.001  127.496
 calculate_xc_2nd_deriv_atom        200  9.0    0.121    7.969    1.097  124.339
 qs_rho_update_rho_low              281  7.9    0.004    0.004  104.532  104.582
 integrate_v_rspace                 279  9.0    0.008    0.010   97.079   97.500
 mp_alltoall_d11v                 17636 11.6   92.236   96.409   92.236   96.409
 rs_gather_matrices                 279 10.0    0.050    0.273   77.257   80.137
 calculate_rho_elec                 281  8.9    0.262    0.279   79.204   79.255
 grid_integrate_task_list           279 10.0    2.734   77.589    2.734   77.589
 density_rs2pw                      281  9.9    0.012    0.015   60.890   66.404
 mp_sum_d                         17793  7.2   61.702   64.678   61.702   64.678
 transfer_rs2pw                    1405 10.8    0.025    0.034   58.778   64.189
 mp_sum_dm                        14413 10.0   58.693   59.558   58.693   59.558
 integrate_four_center_dist_KS      479 10.8    1.590    1.794   56.185   56.244
 grid_collocate_task_list           281  9.9   15.033   55.630   15.033   55.630
 mp_waitany                       26894 12.8   36.949   52.345   36.949   52.345
 powell_optimize                ******* 11.0   49.911   52.261   49.911   52.261
 transfer_rs2pw_250                 562 11.8    0.980    1.137   36.329   49.920
 integrate_four_center_getP         479 10.8    2.332    2.551   48.758   49.020
 integrate_vhg0_rspace              279  9.4   11.431   12.914   48.203   48.331
 calculate_vxc_atom                  79  8.0    0.086    1.592   46.298   46.299
 mp_isendrecv_dv                 774676 12.3   13.800   45.013   13.800   45.013
 transfer_rs2pw_90                  281 11.9    0.278    0.375    9.885   39.102
 cp_fm_syevd                        132  7.2    0.001    0.002   33.221   33.251
 cp_fm_redistribute_end             132  8.2   16.582   32.960   16.610   32.970
 cp_fm_syevd_base                   132  8.2   16.321   32.689   16.321   32.689
 calculate_rho0_atom               1680  9.7   29.481   31.954   29.481   31.954
 cp_dbcsr_sm_fm_multiply           1246  8.6    0.033    0.039   28.722   31.293
 qs_scf_new_mos                      79  5.0    0.001    0.001   30.728   30.880
 calc_pair_dist_radii                 1 10.0    8.394    8.608   28.019   28.954
 eigensolver_symm                    79  6.0    0.004    0.005   28.111   28.133
 sum_up_and_integrate                79  8.0    0.001    0.001   27.588   28.036
 calculate_rho_atom_coeff           281  8.9    0.970    2.209   25.324   25.326
 dbcsr_complete_redistribute       4156 10.5    0.286    0.528   20.700   23.261
 mp_sum_l                          6565 10.6   12.921   21.818   12.921   21.818
 integrate_four_center_load         479 10.8    0.002    0.003   12.707   21.738
 hfx_load_balance                     1 11.0    0.000    0.001   12.705   21.736
 hfx_load_balance_range               1 12.0    0.000    0.003   12.477   21.509
 copy_fm_to_dbcsr                  2805  9.6    0.016    0.018   15.128   17.686
 potential_pw2rs                    279 10.0    0.021    0.022   17.079   17.529
 ps_wavelet_solve                   279 10.4   11.289   13.866   16.946   17.295
 transfer_pw2rs                    1396 10.9    0.015    0.018   16.029   16.565
 copy_dbcsr_to_fm                  1349  9.3    0.031    0.036   12.544   13.971
 mp_alltoall_d54                    279 11.4    3.762   13.136    3.762   13.136
 Vh_1c_gg_integrals                 279  9.4    0.203   12.764   12.770   12.809
 tddfpt_print_nto_analysis            1  6.0    0.003    0.004   11.189   11.191
 transfer_rs2pw_30                  281 11.9    3.211    3.739    9.081   10.201
 mp_alltoall_i22                   5506 11.4    6.837    9.898    6.837    9.898
 dbcsr_multiply_generic            1725 10.3    0.088    0.100    8.678    9.853
 cp_fm_geeig                         20  7.0    0.001    0.001    9.737    9.741
 mp_alltoall_i11v                 13818 11.5    8.851    8.864    8.851    8.864
 mp_sendrecv_dv                  287182 12.9    8.485    8.788    8.485    8.788
 dbcsr_desymmetrize_deep           1350 10.3    0.041    0.066    6.778    8.203
 cp_dbcsr_sm_fm_multiply_core      1246  9.6    0.004    0.005    6.712    7.838
 xc_pw_derive                      1677 11.0    0.007    0.008    7.636    7.786
 multiply_cannon                   1725 11.3    0.266    0.277    5.942    7.155
 transfer_pw2rs_30                  279 12.0    2.904    3.229    6.664    6.918
 tddfpt_apply_xc_analytic           200  9.0    0.018    0.021    6.485    6.535
 parallel_gemm_fm                  1832  8.3    0.003    0.003    6.453    6.514
 parallel_gemm_fm_gemm             1832  9.3    0.003    0.003    6.451    6.511
 cp_fm_gemm                        1832 10.3    6.448    6.508    6.448    6.508
 qs_energies_init_hamiltonians        1  3.0    0.000    0.000    6.411    6.411
 build_core_hamiltonian_matrix        1  4.0    0.000    0.000    6.379    6.380
 overlap_condnum                      1  5.0    0.000    0.001    6.313    6.373
 multiply_cannon_loop              1725 12.3    0.487    0.591    5.112    6.267
 arnoldi_conjugate_gradient           5  6.0    0.068    0.087    5.707    5.708
 transfer_pw2rs_250                 559 11.7    0.863    0.935    4.694    5.589
 update_ks_atom                     279  8.7    0.805    2.735    3.430    5.222
 xc_pw_divergence                   279 10.7    0.003    0.004    5.055    5.199
 put_rho0_on_grid                   280  9.7    0.308    0.474    4.824    4.901
 tddfpt_orthonormalize_psi1_psi      11  6.9    0.029    0.033    4.799    4.802
 multiply_cannon_metrocomm3       55200 13.3    0.172    0.180    2.171    4.763
 cube_transpose_2                  2800 14.4    0.170    0.216    4.015    4.758
 cp_dbcsr_plus_fm_fm_t              279  8.4    0.005    0.005    4.226    4.340
 tddfpt_apply_energy_diff            10  8.0    0.001    0.002    4.332    4.332
 transfer_rs2pw_10                  281 11.9    0.842    0.949    3.457    4.139
 xc_calc_2nd_deriv_analytical      1400 10.1    0.127    0.235    3.719    3.822
 cube_transpose_4                  1957 14.6    0.181    0.219    3.391    3.785
 tddfpt_compute_residual_vects        9  7.0    0.001    0.001    3.688    3.689
 multiply_cannon_metrocomm1       55200 13.3    0.093    0.097    1.323    3.664
 fft3d_ps                          1680 12.9    0.190    0.314    3.257    3.470
 dbcsr_sym_matrix_vector_mult     10015  7.0    0.160    0.178    3.054    3.460
 hybrid_alltoall_any               4800 13.5    0.060    0.138    2.755    3.036
 qs_vxc_create                       79  8.0    0.001    0.001    2.998    2.999
 xc_vxc_pw_create                    79  9.0    0.081    0.085    2.997    2.998
 rs_scatter_matrices                281  9.9    0.008    0.022    2.848    2.960
 mp_alltoall_d45                    280 11.4    1.888    2.789    1.888    2.789
 mp_bcast_dm                       9486  9.7    2.625    2.680    2.625    2.680
 transfer_pw2rs_10                  279 12.0    0.828    0.860    2.569    2.676
 create_qs_kind_set                   1  2.0    0.000    0.000    2.573    2.574
 read_qs_kind                         6  3.0    1.329    1.378    2.573    2.574
 transfer_pw2rs_90                  279 12.0    0.229    0.256    2.086    2.431
 mp_isend_dm3                     13446 12.8    0.860    2.412    0.860    2.412
 dbcsr_add_d                      15084  7.0    0.014    0.017    0.240    2.365
 dbcsr_add_anytype                15084  8.0    0.017    0.168    0.226    2.350
 make_m2s                          3450 11.3    0.069    0.078    1.947    2.257
 mp_irecv_dm3                     13446 12.8    0.523    2.219    0.523    2.219
 gspace_mixing                       78  5.0    0.072    0.077    2.075    2.076
 make_images                       3450 12.3    0.643    0.797    1.766    2.045
 fft_wrap_pw1pw2_90                 560 11.9    0.030    0.083    1.685    1.870
 multiply_cannon_multrec          55200 13.3    0.349    1.853    0.357    1.864
 multiply_cannon_metrocomm4       53475 13.3    0.162    0.171    0.469    1.859
 dbcsr_rep_row_to_rep_col_vec     10015  8.0    0.057    0.081    0.787    1.795
 dbcsr_finalize                   23072 11.3    0.069    0.534    0.450    1.789
 broyden_mixing                      78  6.0    1.446    1.592    1.599    1.632
 mp_irecv_dv                     122648 14.2    0.222    1.607    0.222    1.607
 cp2k_distribution_to_z_slices      279 10.4    0.551    0.587    1.465    1.535
 xc_rho_set_and_dset_create          80 10.0    0.039    0.042    1.393    1.490
 calculate_dm_sparse                 79  6.0    0.001    0.001    1.308    1.399
 cp_fm_triangular_multiply           60  8.0    1.394    1.398    1.394    1.398
 dbcsr_col_vec_to_rep_row         10015  8.0    0.074    0.097    0.968    1.333
 qs_init_subsys                       1  2.0    0.016    0.021    1.283    1.283
 parser_read_line                283102  4.0    0.095    0.105    1.243    1.260
 tddfpt_construct_ground_state_       1  6.0    0.000    0.000    1.206    1.207
 cp_fm_symm                          79  7.0    1.157    1.185    1.157    1.185
 parser_read_line_low               311  5.0    0.090    0.534    1.149    1.170
 broadcast_input_information        311  6.0    0.215    0.239    1.059    1.118
 yz_to_xz                           837 14.0    0.123    0.190    0.978    1.109
 qs_env_setup                         1  3.0    0.000    0.000    1.052    1.079
 qs_env_rebuild_pw_env                2  3.5    0.000    0.000    1.051    1.077
 pw_env_rebuild                       1  5.0    0.000    0.001    1.050    1.077
 mp_bcast_dv                      10147  9.0    0.582    1.063    0.582    1.063
 fft_wrap_pw1pw2_30                 560 11.9    0.008    0.047    0.964    1.003
 cp_fm_triangular_invert             20  8.0    0.948    0.949    0.948    0.949
 rs_grid_zero                      1398 11.9    0.819    0.928    0.819    0.928
 cp_fm_cholesky_decompose            21  8.0    0.921    0.922    0.921    0.922
 dbcsr_merge_all                  21203 12.3    0.177    0.692    0.254    0.896
 xz_to_yz                           843 13.9    0.059    0.123    0.728    0.844
 init_scf_run                         1  3.0    0.000    0.000    0.836    0.836
 dbcsr_sym_matrix_vector_mult_l   10015  8.0    0.161    0.716    0.275    0.827
 mp_isend_dv                     125094 14.2    0.267    0.824    0.267    0.824
 compute_max_radius                   1  6.0    0.778    0.813    0.778    0.813
 cp_fm_trace_a1b1t1_aa            20310  8.0    0.126    0.143    0.773    0.781
 dbcsr_iterator_start            145088  9.4    0.357    0.626    0.394    0.769
 make_images_sizes                 3450 13.3    0.004    0.005    0.707    0.749
 mp_rank_compare                   1680 13.9    0.704    0.746    0.704    0.746
 mp_alltoall_i44                   3450 14.3    0.702    0.745    0.702    0.745
 fft_wrap_pw1pw2_10                 560 11.9    0.003    0.028    0.699    0.708
 mp_bcast_i_src                    1244  7.0    0.407    0.677    0.407    0.677
 pw_scatter_p                      2873 12.8    0.533    0.670    0.533    0.670
 make_images_data                  3450 13.3    0.067    0.082    0.232    0.588
 mp_allgather_i34                  1725 12.3    0.447    0.580    0.447    0.580
 mp_bcast_am_src                    311  7.0    0.389    0.522    0.421    0.565
 cp_fm_write_unformatted             44  7.5    0.202    0.528    0.214    0.562
 pw_integral_ab_c1d_c1d_gs          279 10.4    0.357    0.380    0.496    0.561
 multiply_cannon_metrocomm2       51750 13.3    0.156    0.168    0.305    0.561
 pw_poisson_rebuild                 279 10.4    0.000    0.000    0.512    0.518
 ps_wavelet_create                    1 10.0    0.000    0.000    0.512    0.517
 RS_z_slice_distribution              1 11.0    0.423    0.499    0.512    0.517
 xc_functional_eval                1754 10.9    0.001    0.007    0.270    0.512
 pbe_lda_eval                      1754 11.9    0.269    0.505    0.269    0.505
 pw_gather_p                       2800 13.4    0.407    0.503    0.407    0.503
 scf_env_initial_rho_setup            1  4.0    0.000    0.000    0.459    0.459
 dbcsr_copy                       44254  7.8    0.230    0.307    0.346    0.435
 mp_cart_sub                       2705 11.3    0.432    0.434    0.432    0.434
 xc_2nd_deriv_of_r                 1200 10.0    0.001    0.111    0.004    0.414
 cp_fm_redistribute_start           132  8.2    0.224    0.315    0.289    0.413
 mp_max_i                           789  5.2    0.292    0.390    0.292    0.390
 tddfpt_init_mos                      1  5.0    0.000    0.000    0.387    0.387
 tddfpt_init_ground_state_mos         1  6.0    0.000    0.000    0.387    0.387
 dbcsr_work_create                27728 12.2    0.093    0.247    0.144    0.386
 dbcsr_iterator_stop             145088  9.4    0.216    0.344    0.244    0.379
 write_mo_set_to_restart             79  5.0    0.001    0.008    0.023    0.375
 mp_isend_zv                      59188 14.9    0.077    0.372    0.077    0.372
 write_mo_set_low                     4  6.0    0.000    0.001    0.022    0.370
 cp_fm_power                          1  6.0    0.003    0.003    0.369    0.369
 mp_send_dv                          44  8.4    0.011    0.364    0.011    0.364
 eigensolver                          1  7.0    0.000    0.000    0.352    0.352
 mp_cart_create                    3028 10.4    0.318    0.342    0.320    0.345
 dbcsr_work_destroy_all           27728 13.1    0.082    0.230    0.121    0.332
 -------------------------------------------------------------------------------

 The number of warnings for this run is : 2
 
 -------------------------------------------------------------------------------
  **** **** ******  **  PROGRAM ENDED AT                 2025-04-14 18:45:41.814
 ***** ** ***  *** **   PROGRAM RAN ON                              i05r04c05s11
 **    ****   ******    PROGRAM RAN BY                                   di38fab
 ***** **    ** ** **   PROGRAM PROCESS ID                               1565453
  **** **  *******  **  PROGRAM STOPPED IN /hppfs/scratch/04/di38fab/05_MOL/aUKB
                                           qsEOTmq69kFe5R_nOg/5k_set_final_qzvp/
                                           QQQHJA02/aug-cc-pV5Z/TDDFT
