 DBCSR| CPU Multiplication driver                                           BLAS (U)
 DBCSR| Multrec recursion limit                                              512 (U)
 DBCSR| Multiplication stack size                                           1000 (D)
 DBCSR| Maximum elements for images                                    UNLIMITED (U)
 DBCSR| Multiplicative factor virtual images                                   1 (U)
 DBCSR| Use multiplication densification                                       T (D)
 DBCSR| Multiplication size stacks                                             3 (U)
 DBCSR| Use memory pool for CPU allocation                                     F (U)
 DBCSR| Number of 3D layers                                               SINGLE (U)
 DBCSR| Use MPI memory allocation                                              F (U)
 DBCSR| Use RMA algorithm                                                      F (U)
 DBCSR| Use Communication thread                                               T (U)
 DBCSR| Communication thread load                                             45 (D)
 DBCSR| MPI: My process id                                                     0
 DBCSR| MPI: Number of processes                                             128
 DBCSR| OMP: Current number of threads                                        12
 DBCSR| OMP: Max number of threads                                            12
 DBCSR| Split modifier for TAS multiplication algorithm                  1.0E+00 (U)


  **** **** ******  **  PROGRAM STARTED AT               2025-04-14 10:09:17.152
 ***** ** ***  *** **   PROGRAM STARTED ON                          i08r01c01s01
 **    ****   ******    PROGRAM STARTED BY                               di38fab
 ***** **    ** ** **   PROGRAM PROCESS ID                               3496538
  **** **  *******  **  PROGRAM STARTED IN /hppfs/scratch/04/di38fab/05_MOL/aUKB
                                           qsEOTmq69kFe5R_nOg/5k_set_final_qzvp/
                                           PUGDAX/aug-cc-pVDZ/TDDFT

 CP2K| version string:                 CP2K version 2025.1 (Development Version)
 CP2K| source code revision number:                             unknown revision
 CP2K| cp2kflags: omp libint fftw3 libxc parallel scalapack max_contr=4         
 CP2K| is freely available from                            https://www.cp2k.org/
 CP2K| Program compiled at                         Thu Apr 10 16:20:23 CEST 2025
 CP2K| Program compiled on                                               login01
 CP2K| Program compiled for                                        Supermuc-foss
 CP2K| Data directory path                  /hppfs/work/pn36zo/di38fab/cp2k/data
 CP2K| Input file name                                                    GW.inp

 GLOBAL| Force Environment number                                              1
 GLOBAL| Basis set file name            /hppfs/scratch/04/di38fab/04_TMD/BASIS_A
 GLOBAL| Potential file name            /hppfs/work/pn36zo/di38fab/cp2k/data/ALL
 GLOBAL| MM Potential file name                                     MM_POTENTIAL
 GLOBAL| Coordinate file name                                      __STD_INPUT__
 GLOBAL| Method name                                                        CP2K
 GLOBAL| Project name                                                       MoS2
 GLOBAL| Run type                                                         ENERGY
 GLOBAL| FFT library                                                       FFTW3
 GLOBAL| Diagonalization library                                       ScaLAPACK
 GLOBAL| DGEMM library                                                      BLAS
 GLOBAL| Orthonormality check for eigenvectors                          DISABLED
 GLOBAL| Matrix multiplication library                                 ScaLAPACK
 GLOBAL| All-to-all communication in single precision                          F
 GLOBAL| FFTs using library dependent lengths                                  F
 GLOBAL| Grid backend                                                       AUTO
 GLOBAL| Global print level                                               MEDIUM
 GLOBAL| MPI I/O enabled                                                       T
 GLOBAL| Total number of message passing processes                           128
 GLOBAL| Number of threads for this process                                   12
 GLOBAL| This output is from process                                           0
 GLOBAL| OpenMP stack size per thread (OMP_STACKSIZE)                    default
 GLOBAL| CPU model name             Intel(R) Xeon(R) Platinum 8174 CPU @ 3.10GHz

 MEMORY| system memory details [Kb]
 MEMORY|                        rank 0           min           max       average
 MEMORY| MemTotal             98436664      98436648      98436708      98436662
 MEMORY| MemFree              84228472      84228472      86214992      84931368
 MEMORY| Buffers                     0             0             0             0
 MEMORY| Cached                2365568       2319864       2390184       2369628
 MEMORY| Slab                  1288192       1000524       1288192       1216653
 MEMORY| SReclaimable           281124        229620        284280        271713
 MEMORY| MemLikelyFree        86875164      86875164      88764476      87572709


 *** Fundamental physical constants (SI units) ***

 *** Literature: B. J. Mohr and B. N. Taylor,
 ***             CODATA recommended values of the fundamental physical
 ***             constants: 2006, Web Version 5.1
 ***             http://physics.nist.gov/constants

 Speed of light in vacuum [m/s]                             2.99792458000000E+08
 Magnetic constant or permeability of vacuum [N/A**2]       1.25663706143592E-06
 Electric constant or permittivity of vacuum [F/m]          8.85418781762039E-12
 Planck constant (h) [J*s]                                  6.62606896000000E-34
 Planck constant (h-bar) [J*s]                              1.05457162825177E-34
 Elementary charge [C]                                      1.60217648700000E-19
 Electron mass [kg]                                         9.10938215000000E-31
 Electron g factor [ ]                                     -2.00231930436220E+00
 Proton mass [kg]                                           1.67262163700000E-27
 Fine-structure constant                                    7.29735253760000E-03
 Rydberg constant [1/m]                                     1.09737315685270E+07
 Avogadro constant [1/mol]                                  6.02214179000000E+23
 Boltzmann constant [J/K]                                   1.38065040000000E-23
 Atomic mass unit [kg]                                      1.66053878200000E-27
 Bohr radius [m]                                            5.29177208590000E-11

 *** Conversion factors ***

 [u] -> [a.u.]                                              1.82288848426455E+03
 [Angstrom] -> [Bohr] = [a.u.]                              1.88972613288564E+00
 [a.u.] = [Bohr] -> [Angstrom]                              5.29177208590000E-01
 [a.u.] -> [s]                                              2.41888432650478E-17
 [a.u.] -> [fs]                                             2.41888432650478E-02
 [a.u.] -> [J]                                              4.35974393937059E-18
 [a.u.] -> [N]                                              8.23872205491840E-08
 [a.u.] -> [K]                                              3.15774647902944E+05
 [a.u.] -> [kJ/mol]                                         2.62549961709828E+03
 [a.u.] -> [kcal/mol]                                       6.27509468713739E+02
 [a.u.] -> [Pa]                                             2.94210107994716E+13
 [a.u.] -> [bar]                                            2.94210107994716E+08
 [a.u.] -> [atm]                                            2.90362800883016E+08
 [a.u.] -> [eV]                                             2.72113838565563E+01
 [a.u.] -> [Hz]                                             6.57968392072181E+15
 [a.u.] -> [1/cm] (wave numbers)                            2.19474631370540E+05
 [a.u./Bohr**2] -> [1/cm]                                   5.14048714338585E+03
 

 CELL_TOP| Volume [angstrom^3]:                                     27000.000000
 CELL_TOP| Vector a [angstrom    30.000     0.000     0.000   |a| =    30.000000
 CELL_TOP| Vector b [angstrom     0.000    30.000     0.000   |b| =    30.000000
 CELL_TOP| Vector c [angstrom     0.000     0.000    30.000   |c| =    30.000000
 CELL_TOP| Angle (b,c), alpha [degree]:                                90.000000
 CELL_TOP| Angle (a,c), beta  [degree]:                                90.000000
 CELL_TOP| Angle (a,b), gamma [degree]:                                90.000000
 CELL_TOP| Numerically orthorhombic:                                         YES
 CELL_TOP| Periodicity                                                      NONE

 GENERATE|  Preliminary Number of Bonds generated:                             0
 GENERATE|  Achieved consistency in connectivity generation.

 CELL| Volume [angstrom^3]:                                         27000.000000
 CELL| Vector a [angstrom]:      30.000     0.000     0.000   |a| =    30.000000
 CELL| Vector b [angstrom]:       0.000    30.000     0.000   |b| =    30.000000
 CELL| Vector c [angstrom]:       0.000     0.000    30.000   |c| =    30.000000
 CELL| Angle (b,c), alpha [degree]:                                    90.000000
 CELL| Angle (a,c), beta  [degree]:                                    90.000000
 CELL| Angle (a,b), gamma [degree]:                                    90.000000
 CELL| Numerically orthorhombic:                                             YES
 CELL| Periodicity                                                          NONE

 CELL_REF| Volume [angstrom^3]:                                     27000.000000
 CELL_REF| Vector a [angstrom    30.000     0.000     0.000   |a| =    30.000000
 CELL_REF| Vector b [angstrom     0.000    30.000     0.000   |b| =    30.000000
 CELL_REF| Vector c [angstrom     0.000     0.000    30.000   |c| =    30.000000
 CELL_REF| Angle (b,c), alpha [degree]:                                90.000000
 CELL_REF| Angle (a,c), beta  [degree]:                                90.000000
 CELL_REF| Angle (a,b), gamma [degree]:                                90.000000
 CELL_REF| Numerically orthorhombic:                                         YES
 CELL_REF| Periodicity                                                      NONE

 *******************************************************************************
 *******************************************************************************
 **                                                                           **
 **     #####                         ##              ##                      **
 **    ##   ##            ##          ##              ##                      **
 **   ##     ##                       ##            ######                    **
 **   ##     ##  ##   ##  ##   #####  ##  ##   ####   ##    #####    #####    **
 **   ##     ##  ##   ##  ##  ##      ## ##   ##      ##   ##   ##  ##   ##   **
 **   ##  ## ##  ##   ##  ##  ##      ####     ###    ##   ######   ######    **
 **    ##  ###   ##   ##  ##  ##      ## ##      ##   ##   ##       ##        **
 **     #######   #####   ##   #####  ##  ##  ####    ##    #####   ##        **
 **           ##                                                    ##        **
 **                                                                           **
 **                                                ... make the atoms dance   **
 **                                                                           **
 **            Copyright (C) by CP2K developers group (2000-2025)             **
 **                      J. Chem. Phys. 152, 194103 (2020)                    **
 **                                                                           **
 *******************************************************************************

 DFT| Spin restricted Kohn-Sham (RKS) calculation                            RKS
 DFT| Multiplicity                                                             1
 DFT| Number of spin states                                                    1
 DFT| Charge                                                                   0
 DFT| Self-interaction correction (SIC)                                       NO
 DFT| Cutoffs: density                                              1.000000E-10
 DFT|          gradient                                             1.000000E-10
 DFT|          tau                                                  1.000000E-10
 DFT|          cutoff_smoothing_range                               0.000000E+00
 DFT| XC density smoothing                                                  NONE
 DFT| XC derivatives                                                          PW

 FUNCTIONAL| PBE:
 FUNCTIONAL| J.P.Perdew, K.Burke, M.Ernzerhof, Phys. Rev. Letter, vol. 77, n 18,
 FUNCTIONAL|  pp. 3865-3868, (1996)sx=0.750sc=1.000{spin unpolarized}           


 QS| Method:                                                                GAPW
 QS| Density plane wave grid type                        NON-SPHERICAL FULLSPACE
 QS| Number of grid levels:                                                    4
 QS| Density cutoff [a.u.]:                                                250.0
 QS| Multi grid cutoff [a.u.]: 1) grid level                               250.0
 QS|                           2) grid level                                83.3
 QS|                           3) grid level                                27.8
 QS|                           4) grid level                                 9.3
 QS| Grid level progression factor:                                          3.0
 QS| Relative density cutoff [a.u.]:                                        50.0
 QS| Interaction thresholds: eps_pgf_orb:                                1.0E-12
 QS|                         eps_filter_matrix:                          0.0E+00
 QS|                         eps_core_charge:                            1.0E-14
 QS|                         eps_rho_gspace:                             1.0E-12
 QS|                         eps_rho_rspace:                             1.0E-12
 QS|                         eps_gvg_rspace:                             1.0E-06
 QS|                         eps_ppl:                                    1.0E-02
 QS|                         eps_ppnl:                                   1.0E-08
 QS| GAPW|      One center basis from orbital basis primitives
 QS| GAPW|                   eps_fit:                                    1.0E-04
 QS| GAPW|                   eps_iso:                                    1.0E-12
 QS| GAPW|                   eps_svd:                                    1.0E-08
 QS| GAPW|                   eps_cpc:                                    1.0E-12
 QS| GAPW|   atom-r-grid: quadrature:                                     GC_LOG
 QS| GAPW|      atom-s-grid:  max l :                                          4
 QS| GAPW|      max_l_rho0 :                                                   2


 ATOMIC KIND INFORMATION

  1. Atomic kind: F                                     Number of atoms:       2

     Orbital Basis Set                                               aug-cc-pVDZ

       Number of orbital shell sets:                                           6
       Number of orbital shells:                                               9
       Number of primitive Cartesian functions:                               17
       Number of Cartesian basis functions:                                   25
       Number of spherical basis functions:                                   23
       Norm type:                                                              2

       Normalised Cartesian orbitals:

                        Set   Shell   Orbital            Exponent    Coefficient

                          1       1    1px               0.085020       0.065440
                          1       1    1py               0.085020       0.065440
                          1       1    1pz               0.085020       0.065440

                          2       1    1s                0.098630       0.125434

                          3       1    1px              22.670000       3.164375
                                                         4.977000       2.497712
                                                         1.347000       1.051861
                                                         0.347100       0.173975
                          3       1    1py              22.670000       3.164375
                                                         4.977000       2.497712
                                                         1.347000       1.051861
                                                         0.347100       0.173975
                          3       1    1pz              22.670000       3.164375
                                                         4.977000       2.497712
                                                         1.347000       1.051861
                                                         0.347100       0.173975

                          3       2    2px              22.670000       0.000000
                                                         4.977000       0.000000
                                                         1.347000       0.000000
                                                         0.347100       0.379759
                          3       2    2py              22.670000       0.000000
                                                         4.977000       0.000000
                                                         1.347000       0.000000
                                                         0.347100       0.379759
                          3       2    2pz              22.670000       0.000000
                                                         4.977000       0.000000
                                                         1.347000       0.000000
                                                         0.347100       0.379759

                          4       1    1s            14710.000000       0.686365
                                                      2207.000000       1.274353
                                                       502.800000       2.139126
                                                       142.600000       3.130553
                                                        46.470000       3.638230
                                                        16.700000       2.641476
                                                         6.356000       0.755357
                                                         1.316000       0.013427
                                                         0.389700      -0.000820

                          4       2    2s            14710.000000      -0.157074
                                                      2207.000000      -0.300172
                                                       502.800000      -0.491514
                                                       142.600000      -0.784991
                                                        46.470000      -0.934756
                                                        16.700000      -1.005483
                                                         6.356000      -0.320466
                                                         1.316000       0.492853
                                                         0.389700       0.199941

                          4       3    3s            14710.000000       0.000000
                                                      2207.000000       0.000000
                                                       502.800000       0.000000
                                                       142.600000       0.000000
                                                        46.470000       0.000000
                                                        16.700000       0.000000
                                                         6.356000       0.000000
                                                         1.316000       0.000000
                                                         0.389700       0.351526

                          5       1    1dx2              0.464000       0.429354
                          5       1    1dxy              0.464000       0.743664
                          5       1    1dxz              0.464000       0.743664
                          5       1    1dy2              0.464000       0.429354
                          5       1    1dyz              0.464000       0.743664
                          5       1    1dz2              0.464000       0.429354

                          6       1    1dx2              1.640000       3.911886
                          6       1    1dxy              1.640000       6.775585
                          6       1    1dxz              1.640000       6.775585
                          6       1    1dy2              1.640000       3.911886
                          6       1    1dyz              1.640000       6.775585
                          6       1    1dz2              1.640000       3.911886

     RI Auxiliary Basis Set                                    aug-cc-pVDZ-OPTRI

       Number of orbital shell sets:                                          17
       Number of orbital shells:                                              17
       Number of primitive Cartesian functions:                               17
       Number of Cartesian basis functions:                                   88
       Number of spherical basis functions:                                   69
       Norm type:                                                              2

       Normalised Cartesian orbitals:

                        Set   Shell   Orbital            Exponent    Coefficient

                          1       1    1px               0.126928       0.107991
                          1       1    1py               0.126928       0.107991
                          1       1    1pz               0.126928       0.107991

                          2       1    1s                0.146513       0.168779

                          3       1    1px               0.514046       0.620430
                          3       1    1py               0.514046       0.620430
                          3       1    1pz               0.514046       0.620430

                          4       1    1fx3              0.639079       0.537591
                          4       1    1fx2y             0.639079       1.202091
                          4       1    1fx2z             0.639079       1.202091
                          4       1    1fxy2             0.639079       1.202091
                          4       1    1fxyz             0.639079       2.082082
                          4       1    1fxz2             0.639079       1.202091
                          4       1    1fy3              0.639079       0.537591
                          4       1    1fy2z             0.639079       1.202091
                          4       1    1fyz2             0.639079       1.202091
                          4       1    1fz3              0.639079       0.537591

                          5       1    1px               1.085258       1.578906
                          5       1    1py               1.085258       1.578906
                          5       1    1pz               1.085258       1.578906

                          6       1    1dx2              1.095438       1.930581
                          6       1    1dxy              1.095438       3.343865
                          6       1    1dxz              1.095438       3.343865
                          6       1    1dy2              1.095438       1.930581
                          6       1    1dyz              1.095438       3.343865
                          6       1    1dz2              1.095438       1.930581

                          7       1    1s                1.236326       0.835622

                          8       1    1fx3              1.980057       6.846668
                          8       1    1fx2y             1.980057      15.309615
                          8       1    1fx2z             1.980057      15.309615
                          8       1    1fxy2             1.980057      15.309615
                          8       1    1fxyz             1.980057      26.517030
                          8       1    1fxz2             1.980057      15.309615
                          8       1    1fy3              1.980057       6.846668
                          8       1    1fy2z             1.980057      15.309615
                          8       1    1fyz2             1.980057      15.309615
                          8       1    1fz3              1.980057       6.846668

                          9       1    1gx4              2.274113      10.657824
                          9       1    1gx3y             2.274113      28.197951
                          9       1    1gx3z             2.274113      28.197951
                          9       1    1gx2y2            2.274113      36.403399
                          9       1    1gx2yz            2.274113      63.052536
                          9       1    1gx2z2            2.274113      36.403399
                          9       1    1gxy3             2.274113      28.197951
                          9       1    1gxy2z            2.274113      63.052536
                          9       1    1gxyz2            2.274113      63.052536
                          9       1    1gxz3             2.274113      28.197951
                          9       1    1gy4              2.274113      10.657824
                          9       1    1gy3z             2.274113      28.197951
                          9       1    1gy2z2            2.274113      36.403399
                          9       1    1gyz3             2.274113      28.197951
                          9       1    1gz4              2.274113      10.657824

                         10       1    1px               2.291208       4.018100
                         10       1    1py               2.291208       4.018100
                         10       1    1pz               2.291208       4.018100

                         11       1    1dx2              3.336915      13.560118
                         11       1    1dxy              3.336915      23.486813
                         11       1    1dxz              3.336915      23.486813
                         11       1    1dy2              3.336915      13.560118
                         11       1    1dyz              3.336915      23.486813
                         11       1    1dz2              3.336915      13.560118

                         12       1    1s                4.226853       2.100985

                         13       1    1px               4.837221      10.225511
                         13       1    1py               4.837221      10.225511
                         13       1    1pz               4.837221      10.225511

                         14       1    1fx3              6.162877      88.098259
                         14       1    1fx2y             6.162877     196.993695
                         14       1    1fx2z             6.162877     196.993695
                         14       1    1fxy2             6.162877     196.993695
                         14       1    1fxyz             6.162877     341.203089
                         14       1    1fxz2             6.162877     196.993695
                         14       1    1fy3              6.162877      88.098259
                         14       1    1fy2z             6.162877     196.993695
                         14       1    1fyz2             6.162877     196.993695
                         14       1    1fz3              6.162877      88.098259

                         15       1    1dx2              7.278188      53.082354
                         15       1    1dxy              7.278188      91.941335
                         15       1    1dxz              7.278188      91.941335
                         15       1    1dy2              7.278188      53.082354
                         15       1    1dyz              7.278188      91.941335
                         15       1    1dz2              7.278188      53.082354

                         16       1    1s               14.451113       5.282458

                         17       1    1dx2             15.874547     207.795818
                         17       1    1dxy             15.874547     359.912914
                         17       1    1dxz             15.874547     359.912914
                         17       1    1dy2             15.874547     207.795818
                         17       1    1dyz             15.874547     359.912914
                         17       1    1dz2             15.874547     207.795818

       Atomic covalent radius [Angstrom]:                                  0.720

       Atomic van der Waals radius [Angstrom]:                             1.470

     The atoms of this atomic kind are PAW atoms (GAPW):
       Hard Gaussian function radius:                                      1.512
       Rho0 radius:                                                        1.512
       Maximum GTO radius used for PAW projector construction:            24.566

     GAPW Soft Basis Set                                        aug-cc-pVDZ_soft

       Number of orbital shell sets:                                           6
       Number of orbital shells:                                               9
       Number of primitive Cartesian functions:                                8
       Number of Cartesian basis functions:                                   25
       Number of spherical basis functions:                                   23
       Norm type:                                                              2

       Normalised Cartesian orbitals:

                        Set   Shell   Orbital            Exponent    Coefficient

                          1       1    1px               0.085020       0.065440
                          1       1    1py               0.085020       0.065440
                          1       1    1pz               0.085020       0.065440

                          2       1    1s                0.098630       0.125434

                          3       1    1px               1.347000       1.051861
                                                         0.347100       0.173975
                          3       1    1py               1.347000       1.051861
                                                         0.347100       0.173975
                          3       1    1pz               1.347000       1.051861
                                                         0.347100       0.173975

                          3       2    2px               1.347000       0.000000
                                                         0.347100       0.379759
                          3       2    2py               1.347000       0.000000
                                                         0.347100       0.379759
                          3       2    2pz               1.347000       0.000000
                                                         0.347100       0.379759

                          4       1    1s                1.316000       0.013427
                                                         0.389700      -0.000820

                          4       2    2s                1.316000       0.492853
                                                         0.389700       0.199941

                          4       3    3s                1.316000       0.000000
                                                         0.389700       0.351526

                          5       1    1dx2              0.464000       0.429354
                          5       1    1dxy              0.464000       0.743664
                          5       1    1dxz              0.464000       0.743664
                          5       1    1dy2              0.464000       0.429354
                          5       1    1dyz              0.464000       0.743664
                          5       1    1dz2              0.464000       0.429354

                          6       1    1dx2              1.640000       3.911886
                          6       1    1dxy              1.640000       6.775585
                          6       1    1dxz              1.640000       6.775585
                          6       1    1dy2              1.640000       3.911886
                          6       1    1dyz              1.640000       6.775585
                          6       1    1dz2              1.640000       3.911886

     AE Potential information for                                            ALL

       Description:                                       All-electron potential
                                          Krack, Parrinello, PCCP 2, 2105 (2000)

       Gaussian exponent of the core charge distribution:              10.470541
       Electronic configuration (s p d ...):                           4   5   0

  2. Atomic kind: C                                     Number of atoms:       6

     Orbital Basis Set                                               aug-cc-pVDZ

       Number of orbital shell sets:                                           6
       Number of orbital shells:                                               9
       Number of primitive Cartesian functions:                               17
       Number of Cartesian basis functions:                                   25
       Number of spherical basis functions:                                   23
       Norm type:                                                              2

       Normalised Cartesian orbitals:

                        Set   Shell   Orbital            Exponent    Coefficient

                          1       1    1px               0.040410       0.025826
                          1       1    1py               0.040410       0.025826
                          1       1    1pz               0.040410       0.025826

                          2       1    1s                0.046900       0.071827

                          3       1    1dx2              0.151000       0.060203
                          3       1    1dxy              0.151000       0.104275
                          3       1    1dxz              0.151000       0.104275
                          3       1    1dy2              0.151000       0.060203
                          3       1    1dyz              0.151000       0.104275
                          3       1    1dz2              0.151000       0.060203

                          4       1    1px               9.439000       0.898722
                                                         2.002000       0.711071
                                                         0.545600       0.339917
                                                         0.151700       0.063270
                          4       1    1py               9.439000       0.898722
                                                         2.002000       0.711071
                                                         0.545600       0.339917
                                                         0.151700       0.063270
                          4       1    1pz               9.439000       0.898722
                                                         2.002000       0.711071
                                                         0.545600       0.339917
                                                         0.151700       0.063270

                          4       2    2px               9.439000       0.000000
                                                         2.002000       0.000000
                                                         0.545600       0.000000
                                                         0.151700       0.134950
                          4       2    2py               9.439000       0.000000
                                                         2.002000       0.000000
                                                         0.545600       0.000000
                                                         0.151700       0.134950
                          4       2    2pz               9.439000       0.000000
                                                         2.002000       0.000000
                                                         0.545600       0.000000
                                                         0.151700       0.134950

                          5       1    1s             6665.000000       0.363803
                                                      1000.000000       0.675392
                                                       228.000000       1.132301
                                                        64.710000       1.654004
                                                        21.060000       1.924978
                                                         7.495000       1.448149
                                                         2.797000       0.439427
                                                         0.521500       0.006650
                                                         0.159600      -0.000574

                          5       2    2s             6665.000000      -0.076756
                                                      1000.000000      -0.146257
                                                       228.000000      -0.239407
                                                        64.710000      -0.379069
                                                        21.060000      -0.448104
                                                         7.495000      -0.484201
                                                         2.797000      -0.196168
                                                         0.521500       0.238162
                                                         0.159600       0.104468

                          5       3    3s             6665.000000       0.000000
                                                      1000.000000       0.000000
                                                       228.000000       0.000000
                                                        64.710000       0.000000
                                                        21.060000       0.000000
                                                         7.495000       0.000000
                                                         2.797000       0.000000
                                                         0.521500       0.000000
                                                         0.159600       0.179964

                          6       1    1dx2              0.550000       0.578155
                          6       1    1dxy              0.550000       1.001394
                          6       1    1dxz              0.550000       1.001394
                          6       1    1dy2              0.550000       0.578155
                          6       1    1dyz              0.550000       1.001394
                          6       1    1dz2              0.550000       0.578155

     RI Auxiliary Basis Set                                    aug-cc-pVDZ-OPTRI

       Number of orbital shell sets:                                          17
       Number of orbital shells:                                              17
       Number of primitive Cartesian functions:                               17
       Number of Cartesian basis functions:                                   88
       Number of spherical basis functions:                                   69
       Norm type:                                                              2

       Normalised Cartesian orbitals:

                        Set   Shell   Orbital            Exponent    Coefficient

                          1       1    1s                0.073601       0.100710

                          2       1    1px               0.095295       0.075471
                          2       1    1py               0.095295       0.075471
                          2       1    1pz               0.095295       0.075471

                          3       1    1px               0.227892       0.224441
                          3       1    1py               0.227892       0.224441
                          3       1    1pz               0.227892       0.224441

                          4       1    1fx3              0.301896       0.099457
                          4       1    1fx2y             0.301896       0.222392
                          4       1    1fx2z             0.301896       0.222392
                          4       1    1fxy2             0.301896       0.222392
                          4       1    1fxyz             0.301896       0.385194
                          4       1    1fxz2             0.301896       0.222392
                          4       1    1fy3              0.301896       0.099457
                          4       1    1fy2z             0.301896       0.222392
                          4       1    1fyz2             0.301896       0.222392
                          4       1    1fz3              0.301896       0.099457

                          5       1    1dx2              0.333056       0.240334
                          5       1    1dxy              0.333056       0.416270
                          5       1    1dxz              0.333056       0.416270
                          5       1    1dy2              0.333056       0.240334
                          5       1    1dyz              0.333056       0.416270
                          5       1    1dz2              0.333056       0.240334

                          6       1    1px               0.481813       0.572187
                          6       1    1py               0.481813       0.572187
                          6       1    1pz               0.481813       0.572187

                          7       1    1s                0.499106       0.423209

                          8       1    1fx3              0.891821       1.137835
                          8       1    1fx2y             0.891821       2.544276
                          8       1    1fx2z             0.891821       2.544276
                          8       1    1fxy2             0.891821       2.544276
                          8       1    1fxyz             0.891821       4.406816
                          8       1    1fxz2             0.891821       2.544276
                          8       1    1fy3              0.891821       1.137835
                          8       1    1fy2z             0.891821       2.544276
                          8       1    1fyz2             0.891821       2.544276
                          8       1    1fz3              0.891821       1.137835

                          9       1    1gx4              0.973489       1.033584
                          9       1    1gx3y             0.973489       2.734606
                          9       1    1gx3z             0.973489       2.734606
                          9       1    1gx2y2            0.973489       3.530362
                          9       1    1gx2yz            0.973489       6.114766
                          9       1    1gx2z2            0.973489       3.530362
                          9       1    1gxy3             0.973489       2.734606
                          9       1    1gxy2z            0.973489       6.114766
                          9       1    1gxyz2            0.973489       6.114766
                          9       1    1gxz3             0.973489       2.734606
                          9       1    1gy4              0.973489       1.033584
                          9       1    1gy3z             0.973489       2.734606
                          9       1    1gy2z2            0.973489       3.530362
                          9       1    1gyz3             0.973489       2.734606
                          9       1    1gz4              0.973489       1.033584

                         10       1    1px               1.018656       1.458729
                         10       1    1py               1.018656       1.458729
                         10       1    1pz               1.018656       1.458729

                         11       1    1dx2              1.381969       2.899222
                         11       1    1dxy              1.381969       5.021600
                         11       1    1dxz              1.381969       5.021600
                         11       1    1dy2              1.381969       2.899222
                         11       1    1dyz              1.381969       5.021600
                         11       1    1dz2              1.381969       2.899222

                         12       1    1s                1.807741       1.111123

                         13       1    1px               2.153659       3.718872
                         13       1    1py               2.153659       3.718872
                         13       1    1pz               2.153659       3.718872

                         14       1    1fx3              2.652750      13.221209
                         14       1    1fx2y             2.652750      29.563522
                         14       1    1fx2z             2.652750      29.563522
                         14       1    1fxy2             2.652750      29.563522
                         14       1    1fxyz             2.652750      51.205523
                         14       1    1fxz2             2.652750      29.563522
                         14       1    1fy3              2.652750      13.221209
                         14       1    1fy2z             2.652750      29.563522
                         14       1    1fyz2             2.652750      29.563522
                         14       1    1fz3              2.652750      13.221209

                         15       1    1dx2              3.347320      13.634199
                         15       1    1dxy              3.347320      23.615125
                         15       1    1dxz              3.347320      23.615125
                         15       1    1dy2              3.347320      13.634199
                         15       1    1dyz              3.347320      23.615125
                         15       1    1dz2              3.347320      13.634199

                         16       1    1s                6.547563       2.917225

                         17       1    1dx2              8.107669      64.117632
                         17       1    1dxy              8.107669     111.054996
                         17       1    1dxz              8.107669     111.054996
                         17       1    1dy2              8.107669      64.117632
                         17       1    1dyz              8.107669     111.054996
                         17       1    1dz2              8.107669      64.117632

       Atomic covalent radius [Angstrom]:                                  0.770

       Atomic van der Waals radius [Angstrom]:                             1.700

     The atoms of this atomic kind are PAW atoms (GAPW):
       Hard Gaussian function radius:                                      1.512
       Rho0 radius:                                                        1.512
       Maximum GTO radius used for PAW projector construction:            24.566

     GAPW Soft Basis Set                                        aug-cc-pVDZ_soft

       Number of orbital shell sets:                                           6
       Number of orbital shells:                                               9
       Number of primitive Cartesian functions:                               10
       Number of Cartesian basis functions:                                   25
       Number of spherical basis functions:                                   23
       Norm type:                                                              2

       Normalised Cartesian orbitals:

                        Set   Shell   Orbital            Exponent    Coefficient

                          1       1    1px               0.040410       0.025826
                          1       1    1py               0.040410       0.025826
                          1       1    1pz               0.040410       0.025826

                          2       1    1s                0.046900       0.071827

                          3       1    1dx2              0.151000       0.060203
                          3       1    1dxy              0.151000       0.104275
                          3       1    1dxz              0.151000       0.104275
                          3       1    1dy2              0.151000       0.060203
                          3       1    1dyz              0.151000       0.104275
                          3       1    1dz2              0.151000       0.060203

                          4       1    1px               2.002000       0.711071
                                                         0.545600       0.339917
                                                         0.151700       0.063270
                          4       1    1py               2.002000       0.711071
                                                         0.545600       0.339917
                                                         0.151700       0.063270
                          4       1    1pz               2.002000       0.711071
                                                         0.545600       0.339917
                                                         0.151700       0.063270

                          4       2    2px               2.002000       0.000000
                                                         0.545600       0.000000
                                                         0.151700       0.134950
                          4       2    2py               2.002000       0.000000
                                                         0.545600       0.000000
                                                         0.151700       0.134950
                          4       2    2pz               2.002000       0.000000
                                                         0.545600       0.000000
                                                         0.151700       0.134950

                          5       1    1s                2.797000       0.439427
                                                         0.521500       0.006650
                                                         0.159600      -0.000574

                          5       2    2s                2.797000      -0.196168
                                                         0.521500       0.238162
                                                         0.159600       0.104468

                          5       3    3s                2.797000       0.000000
                                                         0.521500       0.000000
                                                         0.159600       0.179964

                          6       1    1dx2              0.550000       0.578155
                          6       1    1dxy              0.550000       1.001394
                          6       1    1dxz              0.550000       1.001394
                          6       1    1dy2              0.550000       0.578155
                          6       1    1dyz              0.550000       1.001394
                          6       1    1dz2              0.550000       0.578155

     AE Potential information for                                            ALL

       Description:                                       All-electron potential
                                          Krack, Parrinello, PCCP 2, 2105 (2000)

       Gaussian exponent of the core charge distribution:               4.109048
       Electronic configuration (s p d ...):                           4   2   0

  3. Atomic kind: H                                     Number of atoms:       4

     Orbital Basis Set                                               aug-cc-pVDZ

       Number of orbital shell sets:                                           4
       Number of orbital shells:                                               5
       Number of primitive Cartesian functions:                                7
       Number of Cartesian basis functions:                                    9
       Number of spherical basis functions:                                    9
       Norm type:                                                              2

       Normalised Cartesian orbitals:

                        Set   Shell   Orbital            Exponent    Coefficient

                          1       1    1s                0.029740       0.051041

                          2       1    1s               13.010000       0.096107
                                                         1.962000       0.163020
                                                         0.444600       0.185545
                                                         0.122000       0.073744

                          2       2    2s               13.010000       0.000000
                                                         1.962000       0.000000
                                                         0.444600       0.000000
                                                         0.122000       0.147123

                          3       1    1px               0.141000       0.123158
                          3       1    1py               0.141000       0.123158
                          3       1    1pz               0.141000       0.123158

                          4       1    1px               0.727000       0.956881
                          4       1    1py               0.727000       0.956881
                          4       1    1pz               0.727000       0.956881

     RI Auxiliary Basis Set                                    aug-cc-pVDZ-OPTRI

       Number of orbital shell sets:                                           8
       Number of orbital shells:                                               8
       Number of primitive Cartesian functions:                                8
       Number of Cartesian basis functions:                                   24
       Number of spherical basis functions:                                   22
       Norm type:                                                              2

       Normalised Cartesian orbitals:

                        Set   Shell   Orbital            Exponent    Coefficient

                          1       1    1s                0.081394       0.108606

                          2       1    1px               0.273202       0.281543
                          2       1    1py               0.273202       0.281543
                          2       1    1pz               0.273202       0.281543

                          3       1    1s                0.286540       0.279125

                          4       1    1dx2              0.757634       1.012660
                          4       1    1dxy              0.757634       1.753978
                          4       1    1dxz              0.757634       1.753978
                          4       1    1dy2              0.757634       1.012660
                          4       1    1dyz              0.757634       1.753978
                          4       1    1dz2              0.757634       1.012660

                          5       1    1px               1.251075       1.886011
                          5       1    1py               1.251075       1.886011
                          5       1    1pz               1.251075       1.886011

                          6       1    1s                1.320036       0.877707

                          7       1    1dx2              2.604730       8.790108
                          7       1    1dxy              2.604730      15.224913
                          7       1    1dxz              2.604730      15.224913
                          7       1    1dy2              2.604730       8.790108
                          7       1    1dyz              2.604730      15.224913
                          7       1    1dz2              2.604730       8.790108

                          8       1    1px               2.667161       4.858494
                          8       1    1py               2.667161       4.858494
                          8       1    1pz               2.667161       4.858494

       Atomic covalent radius [Angstrom]:                                  0.320

       Atomic van der Waals radius [Angstrom]:                             1.090

     The atoms of this atomic kind are PAW atoms (GAPW):
       Hard Gaussian function radius:                                      1.200
       Rho0 radius:                                                        1.200
       Maximum GTO radius used for PAW projector construction:            24.566

     GAPW Soft Basis Set                                        aug-cc-pVDZ_soft

       Number of orbital shell sets:                                           4
       Number of orbital shells:                                               5
       Number of primitive Cartesian functions:                                6
       Number of Cartesian basis functions:                                    9
       Number of spherical basis functions:                                    9
       Norm type:                                                              2

       Normalised Cartesian orbitals:

                        Set   Shell   Orbital            Exponent    Coefficient

                          1       1    1s                0.029740       0.051041

                          2       1    1s                1.962000       0.163020
                                                         0.444600       0.185545
                                                         0.122000       0.073744

                          2       2    2s                1.962000       0.000000
                                                         0.444600       0.000000
                                                         0.122000       0.147123

                          3       1    1px               0.141000       0.123158
                          3       1    1py               0.141000       0.123158
                          3       1    1pz               0.141000       0.123158

                          4       1    1px               0.727000       0.956881
                          4       1    1py               0.727000       0.956881
                          4       1    1pz               0.727000       0.956881

     AE Potential information for                                            ALL

       Description:                                       All-electron potential
                                          Krack, Parrinello, PCCP 2, 2105 (2000)

       Gaussian exponent of the core charge distribution:              12.500000
       Electronic configuration (s p d ...):                           1   0   0


 MOLECULE KIND INFORMATION


 All atoms are their own molecule, skipping detailed information


 TOTAL NUMBERS AND MAXIMUM NUMBERS

  Total number of            - Atomic kinds:                                   3
                             - Atoms:                                         12
                             - Shell sets:                                    64
                             - Shells:                                        92
                             - Primitive Cartesian functions:                164
                             - Cartesian basis functions:                    236
                             - Spherical basis functions:                    220

  Maximum angular momentum of the orbital basis functions:                     2


 MODULE QUICKSTEP: ATOMIC COORDINATES IN ANGSTROM

   Atom Kind Element         X             Y             Z       Z(eff)     Mass
      1    1 F     9     12.414939     15.372025     14.949921   9.0000  18.9984
      2    2 C     6     13.756241     15.180009     14.956592   6.0000  12.0107
      3    2 C     6     16.504491     14.796061     14.973172   6.0000  12.0107
      4    3 H     1     17.585061     14.670960     14.988345   1.0000   1.0079
      5    2 C     6     15.647307     13.765999     14.582012   6.0000  12.0107
      6    3 H     1     16.066030     12.806269     14.281978   1.0000   1.0079
      7    2 C     6     14.262843     13.944508     14.568655   6.0000  12.0107
      8    3 H     1     13.583188     13.150722     14.266184   1.0000   1.0079
      9    2 C     6     14.569839     16.235574     15.354021   6.0000  12.0107
     10    2 C     6     15.942217     16.010409     15.351081   6.0000  12.0107
     11    1 F     9     16.758377     17.022046     15.733816   9.0000  18.9984
     12    3 H     1     14.151812     17.193731     15.653580   1.0000   1.0079



 SCF PARAMETERS         Density guess:                                    ATOMIC
                        --------------------------------------------------------
                        max_scf:                                             500
                        max_scf_history:                                       0
                        max_diis:                                              4
                        --------------------------------------------------------
                        eps_scf:                                        1.00E-06
                        eps_scf_history:                                0.00E+00
                        eps_diis:                                       1.00E-01
                        eps_eigval:                                     1.00E-05
                        --------------------------------------------------------
                        level_shift [a.u.]:                             0.000000
                        added MOs                                       191    0
                        --------------------------------------------------------
                        Mixing method:                            BROYDEN_MIXING
                                                charge density mixing in g-space
                        --------------------------------------------------------
                        No outer SCF

 PW_GRID| Information for grid number                                          1
 PW_GRID| Grid distributed over                                   128 processors
 PW_GRID| Real space group dimensions                                   128    1
 PW_GRID| the grid is blocked:                                                NO
 PW_GRID| Cutoff [a.u.]                                                    250.0
 PW_GRID| spherical cutoff:                                                   NO
 PW_GRID|   Bounds   1           -202     202                Points:         405
 PW_GRID|   Bounds   2           -202     202                Points:         405
 PW_GRID|   Bounds   3           -202     202                Points:         405
 PW_GRID| Volume element (a.u.^3)  0.2743E-02     Volume (a.u.^3)    182205.0337
 PW_GRID| Grid span                                                    FULLSPACE
 PW_GRID|   Distribution                         Average         Max         Min
 PW_GRID|   G-Vectors                           518985.4      519210      518805
 PW_GRID|   G-Rays                                1281.4        1282        1281
 PW_GRID|   Real Space Points                   518985.4      656100      492075

 PW_GRID| Information for grid number                                          2
 PW_GRID| Number of the reference grid                                         1
 PW_GRID| Grid distributed over                                   128 processors
 PW_GRID| Real space group dimensions                                   128    1
 PW_GRID| the grid is blocked:                                                NO
 PW_GRID| Cutoff [a.u.]                                                     83.3
 PW_GRID| spherical cutoff:                                                   NO
 PW_GRID|   Bounds   1           -120     119                Points:         240
 PW_GRID|   Bounds   2           -120     119                Points:         240
 PW_GRID|   Bounds   3           -120     119                Points:         240
 PW_GRID| Volume element (a.u.^3)  0.1318E-01     Volume (a.u.^3)    182205.0337
 PW_GRID| Grid span                                                    FULLSPACE
 PW_GRID|   Distribution                         Average         Max         Min
 PW_GRID|   G-Vectors                           108000.0      108240      107760
 PW_GRID|   G-Rays                                 450.0         451         449
 PW_GRID|   Real Space Points                   108000.0      115200       57600

 PW_GRID| Information for grid number                                          3
 PW_GRID| Number of the reference grid                                         1
 PW_GRID| Grid distributed over                                   128 processors
 PW_GRID| Real space group dimensions                                   128    1
 PW_GRID| the grid is blocked:                                                NO
 PW_GRID| Cutoff [a.u.]                                                     27.8
 PW_GRID| spherical cutoff:                                                   NO
 PW_GRID|   Bounds   1            -67      67                Points:         135
 PW_GRID|   Bounds   2            -67      67                Points:         135
 PW_GRID|   Bounds   3            -67      67                Points:         135
 PW_GRID| Volume element (a.u.^3)  0.7406E-01     Volume (a.u.^3)    182205.0337
 PW_GRID| Grid span                                                    FULLSPACE
 PW_GRID|   Distribution                         Average         Max         Min
 PW_GRID|   G-Vectors                            19221.7       19845       18630
 PW_GRID|   G-Rays                                 142.4         147         138
 PW_GRID|   Real Space Points                    19221.7       36450       18225

 PW_GRID| Information for grid number                                          4
 PW_GRID| Number of the reference grid                                         1
 PW_GRID| Grid distributed over                                   128 processors
 PW_GRID| Real space group dimensions                                     8   16
 PW_GRID| the grid is blocked:                                                NO
 PW_GRID| Cutoff [a.u.]                                                      9.3
 PW_GRID| spherical cutoff:                                                   NO
 PW_GRID|   Bounds   1            -40      39                Points:          80
 PW_GRID|   Bounds   2            -40      39                Points:          80
 PW_GRID|   Bounds   3            -40      39                Points:          80
 PW_GRID| Volume element (a.u.^3)  0.3559         Volume (a.u.^3)    182205.0337
 PW_GRID| Grid span                                                    FULLSPACE
 PW_GRID|   Distribution                         Average         Max         Min
 PW_GRID|   G-Vectors                             4000.0        4080        3920
 PW_GRID|   G-Rays                                  50.0          51          49
 PW_GRID|   Real Space Points                     4000.0        4000        4000

 POISSON| Solver                                                         WAVELET
 POISSON| Wavelet| Scaling function                                           40
 POISSON| Periodicity                                                       NONE

 RS_GRID| Information for grid number                                          1
 RS_GRID|   Bounds   1           -202     202                Points:         405
 RS_GRID|   Bounds   2           -202     202                Points:         405
 RS_GRID|   Bounds   3           -202     202                Points:         405
 RS_GRID| Real space distribution over                                  4 groups
 RS_GRID| Real space distribution along direction                              1
 RS_GRID| Border size                                                         34
 RS_GRID| Real space distribution over                                  4 groups
 RS_GRID| Real space distribution along direction                              2
 RS_GRID| Border size                                                         34
 RS_GRID| Real space distribution over                                  8 groups
 RS_GRID| Real space distribution along direction                              3
 RS_GRID| Border size                                                         34
 RS_GRID|   Distribution                         Average         Max         Min
 RS_GRID|   Planes                                 169.2         170         169
 RS_GRID|   Distribution                         Average         Max         Min
 RS_GRID|   Planes                                 169.2         170         169
 RS_GRID|   Distribution                         Average         Max         Min
 RS_GRID|   Planes                                 118.6         119         118

 RS_GRID| Information for grid number                                          2
 RS_GRID|   Bounds   1           -120     119                Points:         240
 RS_GRID|   Bounds   2           -120     119                Points:         240
 RS_GRID|   Bounds   3           -120     119                Points:         240
 RS_GRID| Real space distribution over                                  4 groups
 RS_GRID| Real space distribution along direction                              1
 RS_GRID| Border size                                                         36
 RS_GRID| Real space distribution over                                  4 groups
 RS_GRID| Real space distribution along direction                              2
 RS_GRID| Border size                                                         36
 RS_GRID| Real space distribution over                                  8 groups
 RS_GRID| Real space distribution along direction                              3
 RS_GRID| Border size                                                         36
 RS_GRID|   Distribution                         Average         Max         Min
 RS_GRID|   Planes                                 132.0         132         132
 RS_GRID|   Distribution                         Average         Max         Min
 RS_GRID|   Planes                                 132.0         132         132
 RS_GRID|   Distribution                         Average         Max         Min
 RS_GRID|   Planes                                 102.0         102         102

 RS_GRID| Information for grid number                                          3
 RS_GRID|   Bounds   1            -67      67                Points:         135
 RS_GRID|   Bounds   2            -67      67                Points:         135
 RS_GRID|   Bounds   3            -67      67                Points:         135
 RS_GRID| Real space fully replicated
 RS_GRID| Group size                                                           1

 RS_GRID| Information for grid number                                          4
 RS_GRID|   Bounds   1            -40      39                Points:          80
 RS_GRID|   Bounds   2            -40      39                Points:          80
 RS_GRID|   Bounds   3            -40      39                Points:          80
 RS_GRID| Real space fully replicated
 RS_GRID| Group size                                                           1

  HFX_INFO| Replica ID:                                                        1
  HFX_INFO| FRACTION:                                               0.2500000000
  HFX_INFO| Interaction Potential:                                       COULOMB
  HFX_INFO| EPS_SCHWARZ:                                                 1.0E-10
  HFX_INFO| EPS_SCHWARZ_FORCES                                           1.0E-08
  HFX_INFO| EPS_STORAGE_SCALING:                                         1.0E+00
  HFX_INFO| NBINS:                                                            64
  HFX_INFO| BLOCK_SIZE:                                                        1
  HFX_INFO| Number of periodic shells considered:                           NONE
  HFX_INFO| Number of periodic cells considered:                            NONE


 OVERLAP MATRIX CONDITION NUMBER
 1-Norm Condition Number (Estimate)
   CN : |A|*|A^-1|:  3.022E+001 *  1.090E+005   = 3.294E+006  Log(1-CN):  6.5178
 1-Norm and 2-Norm Condition Numbers using Diagonalization
   CN : |A|*|A^-1|:  3.022E+001 *  7.421E+005   = 2.242E+007  Log(1-CN):  7.3507
   CN : max/min ev:  1.502E+001 /  2.669E-006   = 5.628E+006  Log(2-CN):  6.7503

 Number of electrons:                                                         58
 Number of occupied orbitals:                                                 29
 Number of molecular orbitals:                                               220

 Number of orbital functions:                                                220

 *** WARNING in qs_scf_initialization.F:1022 :: The numerical rank of the  ***
 *** overlap matrix is lower than the number of requested MOs! Reduce the  ***
 *** number of MOs to the number of available MOs. If necessary, request a ***
 *** lower number of MOs or increase EPS_DEFAULT or EPS_PGF_ORB.           ***

 Number of independent orbital functions:                                    217

 Extrapolation method: initial_guess

 Atomic guess: The first density matrix is obtained in terms of atomic orbitals
               and electronic configurations assigned to each atomic kind

 Guess for atomic kind: F

 Electronic structure
    Total number of core electrons                                          0.00
    Total number of valence electrons                                       9.00
    Total number of electrons                                               9.00
    Multiplicity                                                   not specified
    S      2.00  2.00
    P      5.00


 *******************************************************************************
                  Iteration          Convergence                     Energy [au]
 *******************************************************************************
                          1         1.25896                     -98.840887366541
                          2         1.44253                     -98.794273467958
                          3        0.380350E-01                 -99.057506571651
                          4        0.334094E-02                 -99.057808074445
                          5        0.156211E-03                 -99.057809255983
                          6        0.501660E-05                 -99.057809258918
                          7        0.801058E-06                 -99.057809258921

 Energy components [Hartree]           Total Energy ::          -99.057809258921
                                        Band Energy ::          -52.671494113724
                                     Kinetic Energy ::           98.956950128157
                                   Potential Energy ::         -198.014759387079
                                      Virial (-V/T) ::            2.001019222305
                                        Core Energy ::         -138.889130646244
                                          XC Energy ::           -9.622402082012
                                     Coulomb Energy ::           49.453723469335

 Orbital energies  State     L     Occupation   Energy[a.u.]          Energy[eV]

                       1     0          2.000     -24.207591         -658.722052
                       2     0          2.000      -1.090810          -29.682454

                       1     1          5.000      -0.414938          -11.291047


 Total Electron Density at R=0:                                       428.626802

 Guess for atomic kind: C

 Electronic structure
    Total number of core electrons                                          0.00
    Total number of valence electrons                                       6.00
    Total number of electrons                                               6.00
    Multiplicity                                                   not specified
    S      2.00  2.00
    P      2.00


 *******************************************************************************
                  Iteration          Convergence                     Energy [au]
 *******************************************************************************
                          1        0.121977                     -37.400018089324
                          2        0.904329E-01                 -37.406032348656
                          3        0.638681E-03                 -37.414959418976
                          4        0.141121E-03                 -37.414959795862
                          5        0.446247E-06                 -37.414959815731

 Energy components [Hartree]           Total Energy ::          -37.414959815731
                                        Band Energy ::          -21.286259476185
                                     Kinetic Energy ::           37.482739917864
                                   Potential Energy ::          -74.897699733595
                                      Virial (-V/T) ::            1.998191698305
                                        Core Energy ::          -50.304318516063
                                          XC Energy ::           -4.741579470163
                                     Coulomb Energy ::           17.630938170495

 Orbital energies  State     L     Occupation   Energy[a.u.]          Energy[eV]

                       1     0          2.000      -9.942952         -270.561481
                       2     0          2.000      -0.501864          -13.656426

                       1     1          2.000      -0.198313           -5.396382


 Total Electron Density at R=0:                                       121.940282

 Guess for atomic kind: H

 Electronic structure
    Total number of core electrons                                          0.00
    Total number of valence electrons                                       1.00
    Total number of electrons                                               1.00
    Multiplicity                                                   not specified
    S      1.00


 *******************************************************************************
                  Iteration          Convergence                     Energy [au]
 *******************************************************************************
                          1        0.880988E-02                  -0.444778274653
                          2        0.791349E-03                  -0.444877834394
[...]
 scf_env_do_scf_inner_loop           99  4.0    0.003    0.007  117.951  117.956
 pw_poisson_solve                   279  9.3    3.205    4.048  114.422  114.667
 ps_wavelet_solve                   279 10.3   46.017   56.032   83.967   85.189
 qs_ks_update_qs_env                 99  5.0    0.001    0.001   84.879   84.887
 rebuild_ks_matrix                   99  6.0    0.000    0.001   84.869   84.876
 qs_ks_build_kohn_sham_matrix        99  7.0    0.015    0.016   84.868   84.876
 tddfpt_apply_coulomb               180  9.0    0.003    0.004   83.671   83.940
 fft_wrap_pw1pw2                   5693 11.0    0.094    0.126   78.652   79.343
 fft_wrap_pw1pw2_250               4013 12.0    3.592    4.066   75.073   75.812
 fft3d_ps                          5693 13.0   19.760   23.443   68.281   69.073
 mp_alltoall_d54                    279 11.3   14.764   51.877   14.764   51.877
 qs_rho_update_rho_low              281  7.6    0.004    0.004   50.843   50.851
 calculate_rho_elec                 281  8.6    1.028    1.299   50.322   50.331
 mp_alltoall_z22v                  5693 15.0   45.438   46.919   45.438   46.919
 density_rs2pw                      281  9.6    0.014    0.017   30.601   32.453
 integrate_v_rspace                 279  9.0    0.007    0.008   31.691   31.956
 xc_pw_derive                      1677 11.0    0.012    0.013   28.901   29.293
 mp_alltoall_d45                    280 11.3   22.745   27.193   22.745   27.193
 potential_pw2rs                    279 10.0    0.088    0.097   26.664   26.912
 integrate_four_center              459  9.8   10.327   20.646   26.187   26.338
 x_to_yz                           2614 13.7    1.453    1.964   24.416   25.100
 transfer_rs2pw                    1405 10.6    0.031    0.054   22.867   24.653
 yz_to_x                           2519 14.3    1.104    1.218   23.530   24.557
 transfer_pw2rs                    1396 10.9    0.018    0.022   23.756   23.996
 tddfpt_apply_xc_analytic           180  9.0    0.068    0.078   22.187   22.341
 tddfpt_apply_hfx                     9  8.0    0.004    0.004   21.445   21.446
 grid_collocate_task_list           281  9.6   17.941   21.022   17.941   21.022
 mp_sync                           2453 11.4   10.876   20.940   10.876   20.940
 xc_pw_divergence                   279 10.6    0.006    0.007   19.025   19.385
 mp_waitany                       64998 12.7   14.520   18.435   14.520   18.435
 tddft_hfx_matrix                   360  9.0    0.010    0.011   18.255   18.354
 mp_alltoall_d11v                 16376 11.6   11.678   18.187   11.678   18.187
 qs_vxc_create                       99  8.0    0.001    0.002   14.207   14.208
 xc_vxc_pw_create                    99  9.0    0.391    0.498   14.206   14.206
 xc_calc_2nd_deriv_analytical       900 10.2    0.523    0.608   12.612   12.675
 prepare_gapw_den                   280  8.6    0.005    0.006   12.255   12.311
 transfer_rs2pw_250                 562 11.6    2.382    2.551    9.997   12.047
 gspace_mixing                       98  5.0    0.357    0.452   11.226   11.227
 sum_up_and_integrate                99  8.0    0.001    0.001   10.881   10.920
 put_rho0_on_grid                   280  9.6    1.060    1.360   10.296   10.352
 transfer_pw2rs_250                 559 11.6    3.206    3.436    9.967   10.292
 transfer_pw2rs_30                  279 12.0    5.504    6.594    9.772   10.038
 broyden_mixing                      98  6.0    8.621    9.011    8.916    9.183
 integrate_vhg0_rspace              279  9.3    0.227    0.319    8.670    8.744
 transfer_rs2pw_30                  281 11.6    3.051    3.305    8.615    8.713
 mp_waitall_1                    372510 13.3    5.685    8.562    5.685    8.562
 hfx_ks_matrix                       99  8.0    0.004    0.004    7.954    8.006
 xc_rho_set_and_dset_create         100 10.0    0.269    0.319    6.516    7.189
 mp_sendrecv_dv                   71374 12.6    6.495    6.800    6.495    6.800
 cp_dbcsr_sm_fm_multiply           1126  8.6    0.025    0.027    6.351    6.465
 mp_sum_d                          6253  7.6    5.032    5.681    5.032    5.681
 gaVxcgb_GC                         558  9.6    0.188    5.642    0.188    5.642
 rs_gather_matrices                 279 10.0    0.008    0.016    4.271    5.002
 calculate_xc_2nd_deriv_atom        180  9.0    0.062    1.016    0.214    4.937
 grid_integrate_task_list           279 10.0    0.747    4.901    0.747    4.901
 dbcsr_complete_redistribute       3836 10.4    0.156    0.207    4.495    4.628
 mp_isend_dm3                     11206 12.7    1.574    4.278    1.574    4.278
 transfer_rs2pw_90                  281 11.6    0.421    0.451    2.772    4.113
 mp_isendrecv_dv                 187452 12.2    1.536    3.945    1.536    3.945
 cp2k_distribution_to_z_slices      279 10.3    2.020    2.263    3.607    3.844
 pw_scatter_p                      2893 12.7    3.376    3.569    3.376    3.569
 qs_scf_new_mos                      99  5.0    0.001    0.001    3.335    3.343
 mp_sum_dm                        10224  9.8    2.841    3.217    2.841    3.217
 cp_fm_syevd                        151  7.2    0.001    0.001    3.143    3.152
 copy_dbcsr_to_fm                  1249  9.2    0.017    0.018    3.001    3.076
 copy_fm_to_dbcsr                  2585  9.5    0.012    0.013    2.927    3.064
 cp_fm_redistribute_end             151  8.2    1.548    2.965    1.564    2.975
 transfer_pw2rs_90                  279 12.0    0.418    0.462    2.515    2.868
 cp_fm_syevd_base                   151  8.2    1.402    2.814    1.402    2.814
 dbcsr_multiply_generic            1585 10.3    0.070    0.076    2.594    2.651
 eigensolver_symm                    99  6.0    0.003    0.004    2.524    2.530
 fft_wrap_pw1pw2_90                 560 11.8    0.109    0.132    2.371    2.476
 calculate_vxc_atom                  99  8.0    0.054    0.314    2.357    2.358
 mp_alltoall_i11v                 12758 11.4    1.940    1.943    1.940    1.943
 pw_gather_p                       2800 13.2    1.759    1.899    1.759    1.899
 integrate_four_center_main         459 10.8    0.184    0.368    1.550    1.867
 cp_dbcsr_sm_fm_multiply_core      1126  9.6    0.003    0.003    1.747    1.799
 pw_integral_ab_c1d_c1d_gs          279 10.3    1.476    1.492    1.685    1.713
 transfer_pw2rs_10                  279 12.0    0.543    0.592    1.484    1.686
 calculate_rho_atom                 840  9.6    0.847    1.673    0.847    1.673
 integrate_four_center_bin        46660 11.8    1.366    1.611    1.366    1.611
 xc_functional_eval                1216 10.9    0.001    0.005    1.022    1.574
 pbe_lda_eval                      1216 11.9    1.021    1.573    1.021    1.573
 pw_copy_to_array                  2800 13.2    0.855    1.554    0.855    1.554
 mp_sum_dv                        23812  8.9    1.376    1.545    1.376    1.545
 transfer_rs2pw_10                  281 11.6    0.521    0.555    1.451    1.534
 cp_dbcsr_plus_fm_fm_t              279  8.3    0.004    0.005    1.502    1.518
 rs_grid_zero                      1398 11.8    1.265    1.503    1.265    1.503
 tddfpt_orthonormalize_psi1_psi      10  6.9    0.024    0.027    1.493    1.494
 mp_isend_dv                     104512 13.4    0.881    1.466    0.881    1.466
 powell_optimize                 556070 11.0    1.364    1.433    1.364    1.433
 pw_derive                         2514 11.8    1.322    1.432    1.322    1.432
 dbcsr_desymmetrize_deep           1250 10.2    0.025    0.029    1.238    1.325
 multiply_cannon                   1585 11.3    0.149    0.158    1.203    1.279
 calc_screening_functions             1 10.0    0.374    0.391    1.139    1.224
 mp_irecv_dm3                     11206 12.7    0.518    1.210    0.518    1.210
 tddfpt_print_nto_analysis            1  6.0    0.002    0.003    1.121    1.122
 pw_copy                           3830 10.9    1.051    1.116    1.051    1.116
 tddfpt_apply_energy_diff             9  8.0    0.001    0.001    1.096    1.097
 qs_energies_init_hamiltonians        1  3.0    0.000    0.000    1.096    1.096
 build_core_hamiltonian_matrix        1  4.0    0.000    0.000    1.089    1.089
 overlap_condnum                      1  5.0    0.000    0.000    1.085    1.087
 create_qs_kind_set                   1  2.0    0.000    0.000    1.085    1.086
 read_qs_kind                         3  3.0    0.606    0.616    1.085    1.086
 arnoldi_conjugate_gradient           5  6.0    0.015    0.018    1.014    1.014
 multiply_cannon_loop              1585 12.3    0.230    0.259    0.877    0.941
 make_m2s                          3170 11.3    0.047    0.051    0.886    0.916
 tddfpt_compute_residual_vects        8  7.0    0.001    0.001    0.910    0.910
 parallel_gemm_fm                  1705  8.2    0.002    0.003    0.862    0.879
 parallel_gemm_fm_gemm             1705  9.2    0.002    0.003    0.860    0.877
 calc_pair_dist_radii                 1 10.0    0.243    0.253    0.842    0.877
 cp_fm_gemm                        1705 10.2    0.858    0.875    0.858    0.875
 pw_poisson_set                     280 10.3    0.005    0.006    0.779    0.807
 fft_wrap_pw1pw2_30                 560 11.8    0.022    0.025    0.679    0.801
 integrate_four_center_getP         459 10.8    0.108    0.114    0.758    0.771
 make_images                       3170 12.3    0.212    0.225    0.732    0.757
 integrate_four_center_dist_KS      459 10.8    0.107    0.113    0.741    0.746
 mp_alltoall_i22                   5086 11.4    0.589    0.705    0.589    0.705
 dbcsr_finalize                   11012 11.3    0.059    0.159    0.383    0.697
 cp_fm_geeig                         20  7.0    0.001    0.001    0.696    0.697
 pw_poisson_rebuild                 279 10.3    0.000    0.000    0.657    0.674
 ps_wavelet_create                    1 10.0    0.000    0.000    0.657    0.674
 RS_z_slice_distribution              1 11.0    0.583    0.643    0.657    0.674
 pw_copy_from_array                2893 12.7    0.555    0.667    0.555    0.667
 hybrid_alltoall_any               4420 13.4    0.039    0.045    0.619    0.637
 scale_and_distribute               558 11.3    0.515    0.581    0.515    0.581
 pw_axpy                           2978 10.7    0.514    0.565    0.514    0.565
 dbcsr_sym_matrix_vector_mult      2215  7.0    0.035    0.037    0.516    0.545
 calculate_dm_sparse                 99  6.0    0.001    0.001    0.525    0.535
 pw_zero                           2940 10.6    0.463    0.523    0.463    0.523
 calculate_rho_atom_coeff           281  8.6    0.059    0.092    0.518    0.519
 dbcsr_add_d                       3404  7.1    0.003    0.004    0.077    0.518
 dbcsr_add_anytype                 3404  8.1    0.006    0.040    0.074    0.515
 offload_free_buffer                287 10.1    0.430    0.503    0.430    0.503
 mp_max_i                           750  5.3    0.377    0.502    0.377    0.502
 parser_read_line                129604  4.0    0.043    0.047    0.479    0.486
 Vh_1c_gg_integrals                 279  9.3    0.033    0.342    0.417    0.486
 cp_fm_trace_a1b1t1_aa            16500  8.0    0.109    0.118    0.458    0.461
 parser_read_line_low               145  5.0    0.044    0.191    0.436    0.442
 fft_wrap_pw1pw2_10                 560 11.8    0.007    0.007    0.435    0.442
 broadcast_input_information        145  6.0    0.101    0.113    0.392    0.413
 mp_irecv_dv                     103026 13.4    0.136    0.388    0.136    0.388
 dbcsr_merge_all                   9123 12.3    0.173    0.277    0.216    0.374
 init_scf_run                         1  3.0    0.000    0.000    0.323    0.323
 mp_sum_l                          6105 10.5    0.264    0.305    0.264    0.305
 make_images_sizes                 3170 13.3    0.004    0.004    0.264    0.300
 mp_alltoall_i44                   3170 14.3    0.261    0.296    0.261    0.296
 mp_cart_sub                       2501 11.2    0.292    0.294    0.292    0.294
 scf_env_initial_rho_setup            1  4.0    0.000    0.000    0.292    0.292
 mp_alltoall_z11v                   560 14.8    0.281    0.286    0.281    0.286
 multiply_cannon_metrocomm3       25360 13.3    0.076    0.080    0.181    0.284
 dbcsr_iterator_start             52928 10.5    0.162    0.230    0.179    0.271
 update_ks_atom                     279  8.6    0.042    0.068    0.239    0.271
 calculate_rho0_atom                840  9.6    0.253    0.261    0.253    0.261
 dbcsr_col_vec_to_rep_row          2215  8.0    0.016    0.017    0.214    0.253
 mp_bcast_am_src                    145  7.0    0.157    0.203    0.174    0.238
 tddfpt_construct_ground_state_       1  6.0    0.000    0.000    0.232    0.234
 mp_bcast_dm                       6696  9.6    0.196    0.224    0.196    0.224
 mp_cart_create                    2091 10.6    0.193    0.213    0.195    0.217
 mp_bcast_dv                       2366  9.0    0.155    0.216    0.155    0.216
 qs_init_subsys                       1  2.0    0.004    0.004    0.211    0.212
 xc_2nd_deriv_of_r                  720 10.0    0.003    0.063    0.010    0.211
 qs_env_setup                         1  3.0    0.000    0.000    0.203    0.203
 dbcsr_create_new                 34556 11.0    0.152    0.164    0.190    0.203
 qs_env_rebuild_pw_env                2  3.5    0.000    0.000    0.201    0.202
 pw_env_rebuild                       1  5.0    0.001    0.001    0.201    0.201
 cp_fm_redistribute_start           151  8.2    0.141    0.154    0.176    0.199
 mp_rank_compare                   5693 14.0    0.192    0.199    0.192    0.199
 mp_bcast_i_src                     580  7.0    0.110    0.197    0.110    0.197
 dbcsr_work_create                15128 12.2    0.087    0.119    0.134    0.191
 multiply_cannon_metrocomm4       23775 13.3    0.073    0.076    0.154    0.185
 pw_grid_setup                        4  6.0    0.000    0.000    0.183    0.184
 pw_grid_setup_internal               4  7.0    0.005    0.007    0.183    0.184
 rs_scatter_matrices                281  9.6    0.004    0.007    0.171    0.179
 prepare_dr1dr                      900 11.2    0.141    0.168    0.141    0.168
 dbcsr_rep_row_to_rep_col_vec      2215  8.0    0.011    0.013    0.073    0.167
 yz_to_xz                           279 14.0    0.008    0.015    0.158    0.165
 multiply_cannon_multrec          25360 13.3    0.109    0.155    0.117    0.163
 dbcsr_work_destroy_all           15128 13.1    0.070    0.103    0.104    0.154
 integrate_four_center_load         459 10.8    0.002    0.002    0.124    0.153
 hfx_load_balance                     1 11.0    0.000    0.000    0.122    0.151
 xz_to_yz                           281 13.6    0.007    0.007    0.138    0.141
 make_images_data                  3170 13.3    0.036    0.045    0.096    0.137
 tddfpt_compute_ritz_vects            9  7.0    0.004    0.006    0.132    0.135
 dbcsr_iterator_stop              52928 10.5    0.089    0.120    0.101    0.134
 multiply_cannon_metrocomm2       22190 13.3    0.068    0.071    0.123    0.133
 dbcsr_data_new                  188169 12.4    0.101    0.133    0.101    0.133
 mp_allgather_i34                  1585 12.3    0.091    0.131    0.091    0.131
 copy_fm_to_dbcsr_bc               2585 10.5    0.038    0.042    0.119    0.129
 pw_grid_sort                         4  8.0    0.076    0.079    0.112    0.117
 dbcsr_copy                       12814  8.5    0.063    0.069    0.105    0.116
 hfx_load_balance_range               1 12.0    0.000    0.000    0.086    0.115
 create_kernel_env                    1  6.0    0.000    0.000    0.093    0.108
 xc_prep_2nd_deriv                    1  7.0    0.000    0.000    0.093    0.108
 multiply_cannon_metrocomm1       25360 13.3    0.040    0.042    0.072    0.106
 dbcsr_data_release              259787 12.5    0.077    0.101    0.077    0.101
 tddfpt_orthogonalize_psi1_psi0      10  6.9    0.000    0.001    0.092    0.101
 dbcsr_special_finalize            4755 13.3    0.021    0.023    0.061    0.087
 cp_fm_symm                          99  7.0    0.073    0.079    0.073    0.079
 cp_fm_cholesky_decompose            21  8.0    0.076    0.076    0.076    0.076
 pw_scale                           756  9.5    0.055    0.075    0.055    0.075
 cp_fm_triangular_invert             20  8.0    0.070    0.070    0.070    0.070
 dbcsr_destroy                    30031 10.6    0.042    0.044    0.062    0.068
 mixing_init                          1  5.0    0.061    0.066    0.066    0.066
 dbcsr_make_images_dense            918 11.6    0.012    0.014    0.033    0.062
 cp_fm_triangular_multiply           60  8.0    0.059    0.060    0.059    0.060
 rs_grid_create                     285 10.2    0.001    0.002    0.013    0.059
 offload_create_buffer              287 11.2    0.012    0.058    0.012    0.058
 dbcsr_make_untransposed_blocks    2584 11.3    0.021    0.022    0.052    0.057
 vxc_of_r_new                       396  9.0    0.001    0.018    0.003    0.057
 tree_to_linear_d                  3836 13.4    0.022    0.055    0.022    0.055
 dbcsr_add_wm_from_matrix           999 11.3    0.008    0.010    0.048    0.054
 scf_post_calculation_gpw             1  3.0    0.000    0.000    0.053    0.054
 write_available_results              1  4.0    0.000    0.000    0.053    0.053
 write_mo_free_results                1  5.0    0.005    0.006    0.053    0.053
 tddfpt_is_nonorthogonal_psi1_p       8  7.0    0.000    0.000    0.050    0.050
 cp_fm_write_unformatted             25  7.0    0.027    0.047    0.028    0.049
 dbcsr_sym_matrix_vector_mult_l    2215  8.0    0.018    0.020    0.045    0.048
 dbcsr_merge_single_wm             3170 14.3    0.021    0.028    0.025    0.047
 dbcsr_scale_anytype               3406  9.1    0.008    0.010    0.041    0.047
 dbcsr_crop_matrix                  297 10.0    0.003    0.003    0.041    0.045
 mp_cart_rank                    142992 10.8    0.040    0.045    0.040    0.045
 mp_isend_iv                      52972 14.3    0.039    0.045    0.039    0.045
 hfx_create                           1  2.0    0.039    0.042    0.040    0.043
 dbcsr_iterator_seek              52928 11.5    0.017    0.042    0.017    0.042
 dbcsr_make_dense_low              1377 12.6    0.008    0.008    0.014    0.041
 write_mo_set_to_restart             99  5.0    0.001    0.008    0.012    0.040
 sort_shells                          4  9.0    0.036    0.040    0.036    0.040
 create_fast_col_vec_access        4430  8.0    0.027    0.029    0.037    0.039
 make_images_pack                  3170 13.3    0.006    0.007    0.036    0.039
 create_fast_row_vec_access        4430  8.0    0.027    0.029    0.037    0.039
 cp_fm_power                          1  6.0    0.000    0.000    0.037    0.037
 mp_bcast_iv                        170  7.1    0.017    0.037    0.017    0.037
 cube_transpose_2                   281 13.6    0.005    0.006    0.031    0.036
 dbcsr_copy_submatrix               297 11.0    0.003    0.003    0.031    0.034
 cube_transpose_1                   279 14.0    0.006    0.006    0.028    0.033
 write_mo_set_low                     5  6.0    0.000    0.000    0.011    0.033
 -------------------------------------------------------------------------------

 The number of warnings for this run is : 2
 
 -------------------------------------------------------------------------------
  **** **** ******  **  PROGRAM ENDED AT                 2025-04-14 10:14:33.832
 ***** ** ***  *** **   PROGRAM RAN ON                              i08r01c01s01
 **    ****   ******    PROGRAM RAN BY                                   di38fab
 ***** **    ** ** **   PROGRAM PROCESS ID                               3496538
  **** **  *******  **  PROGRAM STOPPED IN /hppfs/scratch/04/di38fab/05_MOL/aUKB
                                           qsEOTmq69kFe5R_nOg/5k_set_final_qzvp/
                                           PUGDAX/aug-cc-pVDZ/TDDFT
