 DBCSR| CPU Multiplication driver                                           BLAS (U)
 DBCSR| Multrec recursion limit                                              512 (U)
 DBCSR| Multiplication stack size                                           1000 (D)
 DBCSR| Maximum elements for images                                    UNLIMITED (U)
 DBCSR| Multiplicative factor virtual images                                   1 (U)
 DBCSR| Use multiplication densification                                       T (D)
 DBCSR| Multiplication size stacks                                             3 (U)
 DBCSR| Use memory pool for CPU allocation                                     F (U)
 DBCSR| Number of 3D layers                                               SINGLE (U)
 DBCSR| Use MPI memory allocation                                              F (U)
 DBCSR| Use RMA algorithm                                                      F (U)
 DBCSR| Use Communication thread                                               T (U)
 DBCSR| Communication thread load                                             75 (D)
 DBCSR| MPI: My process id                                                     0
 DBCSR| MPI: Number of processes                                              96
 DBCSR| OMP: Current number of threads                                         4
 DBCSR| OMP: Max number of threads                                             4
 DBCSR| Split modifier for TAS multiplication algorithm                  1.0E+00 (U)


  **** **** ******  **  PROGRAM STARTED AT               2025-04-28 06:02:59.637
 ***** ** ***  *** **   PROGRAM STARTED ON                          i03r10c05s07
 **    ****   ******    PROGRAM STARTED BY                               di38fab
 ***** **    ** ** **   PROGRAM PROCESS ID                               2093110
  **** **  *******  **  PROGRAM STARTED IN /hppfs/scratch/04/di38fab/07_MOL_non_
                                           aug/05_MOL_non_aug/05_MOL/W4-11+ALK/s
                                           io/QZVPP/TDDFT

 CP2K| version string:                 CP2K version 2025.1 (Development Version)
 CP2K| source code revision number:                             unknown revision
 CP2K| cp2kflags: omp libint fftw3 libxc parallel scalapack max_contr=4         
 CP2K| is freely available from                            https://www.cp2k.org/
 CP2K| Program compiled at                         Thu Apr 10 16:20:23 CEST 2025
 CP2K| Program compiled on                                               login01
 CP2K| Program compiled for                                        Supermuc-foss
 CP2K| Data directory path                  /hppfs/work/pn36zo/di38fab/cp2k/data
 CP2K| Input file name                                                    GW.inp

 GLOBAL| Force Environment number                                              1
 GLOBAL| Basis set file name            /hppfs/scratch/04/di38fab/04_TMD/BASIS_A
 GLOBAL| Potential file name            /hppfs/work/pn36zo/di38fab/cp2k/data/ALL
 GLOBAL| MM Potential file name                                     MM_POTENTIAL
 GLOBAL| Coordinate file name                                      __STD_INPUT__
 GLOBAL| Method name                                                        CP2K
 GLOBAL| Project name                                                       MoS2
 GLOBAL| Run type                                                         ENERGY
 GLOBAL| FFT library                                                       FFTW3
 GLOBAL| Diagonalization library                                       ScaLAPACK
 GLOBAL| DGEMM library                                                      BLAS
 GLOBAL| Orthonormality check for eigenvectors                          DISABLED
 GLOBAL| Matrix multiplication library                                 ScaLAPACK
 GLOBAL| All-to-all communication in single precision                          F
 GLOBAL| FFTs using library dependent lengths                                  F
 GLOBAL| Grid backend                                                       AUTO
 GLOBAL| Global print level                                               MEDIUM
 GLOBAL| MPI I/O enabled                                                       T
 GLOBAL| Total number of message passing processes                            96
 GLOBAL| Number of threads for this process                                    4
 GLOBAL| This output is from process                                           0
 GLOBAL| OpenMP stack size per thread (OMP_STACKSIZE)                    default
 GLOBAL| CPU model name             Intel(R) Xeon(R) Platinum 8174 CPU @ 3.10GHz

 MEMORY| system memory details [Kb]
 MEMORY|                        rank 0           min           max       average
 MEMORY| MemTotal             98436660      98436660      98436660      98436660
 MEMORY| MemFree              85104516      85095476      85249280      85169362
 MEMORY| Buffers                     0             0             0             0
 MEMORY| Cached                2384268       2372808       2390320       2381558
 MEMORY| Slab                  1068028       1041896       1068028       1056855
 MEMORY| SReclaimable           243852        235960        247016        241172
 MEMORY| MemLikelyFree        87732636      87721032      87865164      87792093


 *** Fundamental physical constants (SI units) ***

 *** Literature: B. J. Mohr and B. N. Taylor,
 ***             CODATA recommended values of the fundamental physical
 ***             constants: 2006, Web Version 5.1
 ***             http://physics.nist.gov/constants

 Speed of light in vacuum [m/s]                             2.99792458000000E+08
 Magnetic constant or permeability of vacuum [N/A**2]       1.25663706143592E-06
 Electric constant or permittivity of vacuum [F/m]          8.85418781762039E-12
 Planck constant (h) [J*s]                                  6.62606896000000E-34
 Planck constant (h-bar) [J*s]                              1.05457162825177E-34
 Elementary charge [C]                                      1.60217648700000E-19
 Electron mass [kg]                                         9.10938215000000E-31
 Electron g factor [ ]                                     -2.00231930436220E+00
 Proton mass [kg]                                           1.67262163700000E-27
 Fine-structure constant                                    7.29735253760000E-03
 Rydberg constant [1/m]                                     1.09737315685270E+07
 Avogadro constant [1/mol]                                  6.02214179000000E+23
 Boltzmann constant [J/K]                                   1.38065040000000E-23
 Atomic mass unit [kg]                                      1.66053878200000E-27
 Bohr radius [m]                                            5.29177208590000E-11

 *** Conversion factors ***

 [u] -> [a.u.]                                              1.82288848426455E+03
 [Angstrom] -> [Bohr] = [a.u.]                              1.88972613288564E+00
 [a.u.] = [Bohr] -> [Angstrom]                              5.29177208590000E-01
 [a.u.] -> [s]                                              2.41888432650478E-17
 [a.u.] -> [fs]                                             2.41888432650478E-02
 [a.u.] -> [J]                                              4.35974393937059E-18
 [a.u.] -> [N]                                              8.23872205491840E-08
 [a.u.] -> [K]                                              3.15774647902944E+05
 [a.u.] -> [kJ/mol]                                         2.62549961709828E+03
 [a.u.] -> [kcal/mol]                                       6.27509468713739E+02
 [a.u.] -> [Pa]                                             2.94210107994716E+13
 [a.u.] -> [bar]                                            2.94210107994716E+08
 [a.u.] -> [atm]                                            2.90362800883016E+08
 [a.u.] -> [eV]                                             2.72113838565563E+01
 [a.u.] -> [Hz]                                             6.57968392072181E+15
 [a.u.] -> [1/cm] (wave numbers)                            2.19474631370540E+05
 [a.u./Bohr**2] -> [1/cm]                                   5.14048714338585E+03
 

 CELL_TOP| Volume [angstrom^3]:                                     27000.000000
 CELL_TOP| Vector a [angstrom    30.000     0.000     0.000   |a| =    30.000000
 CELL_TOP| Vector b [angstrom     0.000    30.000     0.000   |b| =    30.000000
 CELL_TOP| Vector c [angstrom     0.000     0.000    30.000   |c| =    30.000000
 CELL_TOP| Angle (b,c), alpha [degree]:                                90.000000
 CELL_TOP| Angle (a,c), beta  [degree]:                                90.000000
 CELL_TOP| Angle (a,b), gamma [degree]:                                90.000000
 CELL_TOP| Numerically orthorhombic:                                         YES
 CELL_TOP| Periodicity                                                      NONE

 GENERATE|  Preliminary Number of Bonds generated:                             0
 GENERATE|  Achieved consistency in connectivity generation.

 CELL| Volume [angstrom^3]:                                         27000.000000
 CELL| Vector a [angstrom]:      30.000     0.000     0.000   |a| =    30.000000
 CELL| Vector b [angstrom]:       0.000    30.000     0.000   |b| =    30.000000
 CELL| Vector c [angstrom]:       0.000     0.000    30.000   |c| =    30.000000
 CELL| Angle (b,c), alpha [degree]:                                    90.000000
 CELL| Angle (a,c), beta  [degree]:                                    90.000000
 CELL| Angle (a,b), gamma [degree]:                                    90.000000
 CELL| Numerically orthorhombic:                                             YES
 CELL| Periodicity                                                          NONE

 CELL_REF| Volume [angstrom^3]:                                     27000.000000
 CELL_REF| Vector a [angstrom    30.000     0.000     0.000   |a| =    30.000000
 CELL_REF| Vector b [angstrom     0.000    30.000     0.000   |b| =    30.000000
 CELL_REF| Vector c [angstrom     0.000     0.000    30.000   |c| =    30.000000
 CELL_REF| Angle (b,c), alpha [degree]:                                90.000000
 CELL_REF| Angle (a,c), beta  [degree]:                                90.000000
 CELL_REF| Angle (a,b), gamma [degree]:                                90.000000
 CELL_REF| Numerically orthorhombic:                                         YES
 CELL_REF| Periodicity                                                      NONE

 *******************************************************************************
 *******************************************************************************
 **                                                                           **
 **     #####                         ##              ##                      **
 **    ##   ##            ##          ##              ##                      **
 **   ##     ##                       ##            ######                    **
 **   ##     ##  ##   ##  ##   #####  ##  ##   ####   ##    #####    #####    **
 **   ##     ##  ##   ##  ##  ##      ## ##   ##      ##   ##   ##  ##   ##   **
 **   ##  ## ##  ##   ##  ##  ##      ####     ###    ##   ######   ######    **
 **    ##  ###   ##   ##  ##  ##      ## ##      ##   ##   ##       ##        **
 **     #######   #####   ##   #####  ##  ##  ####    ##    #####   ##        **
 **           ##                                                    ##        **
 **                                                                           **
 **                                                ... make the atoms dance   **
 **                                                                           **
 **            Copyright (C) by CP2K developers group (2000-2025)             **
 **                      J. Chem. Phys. 152, 194103 (2020)                    **
 **                                                                           **
 *******************************************************************************

 DFT| Spin restricted Kohn-Sham (RKS) calculation                            RKS
 DFT| Multiplicity                                                             1
 DFT| Number of spin states                                                    1
 DFT| Charge                                                                   0
 DFT| Self-interaction correction (SIC)                                       NO
 DFT| Cutoffs: density                                              1.000000E-10
 DFT|          gradient                                             1.000000E-10
 DFT|          tau                                                  1.000000E-10
 DFT|          cutoff_smoothing_range                               0.000000E+00
 DFT| XC density smoothing                                                  NONE
 DFT| XC derivatives                                                          PW

 FUNCTIONAL| PBE:
 FUNCTIONAL| J.P.Perdew, K.Burke, M.Ernzerhof, Phys. Rev. Letter, vol. 77, n 18,
 FUNCTIONAL|  pp. 3865-3868, (1996)sx=0.750sc=1.000{spin unpolarized}           


 QS| Method:                                                                GAPW
 QS| Density plane wave grid type                        NON-SPHERICAL FULLSPACE
 QS| Number of grid levels:                                                    4
 QS| Density cutoff [a.u.]:                                                250.0
 QS| Multi grid cutoff [a.u.]: 1) grid level                               250.0
 QS|                           2) grid level                                83.3
 QS|                           3) grid level                                27.8
 QS|                           4) grid level                                 9.3
 QS| Grid level progression factor:                                          3.0
 QS| Relative density cutoff [a.u.]:                                        50.0
 QS| Interaction thresholds: eps_pgf_orb:                                1.0E-12
 QS|                         eps_filter_matrix:                          0.0E+00
 QS|                         eps_core_charge:                            1.0E-14
 QS|                         eps_rho_gspace:                             1.0E-12
 QS|                         eps_rho_rspace:                             1.0E-12
 QS|                         eps_gvg_rspace:                             1.0E-06
 QS|                         eps_ppl:                                    1.0E-02
 QS|                         eps_ppnl:                                   1.0E-08
 QS| GAPW|      One center basis from orbital basis primitives
 QS| GAPW|                   eps_fit:                                    1.0E-04
 QS| GAPW|                   eps_iso:                                    1.0E-12
 QS| GAPW|                   eps_svd:                                    1.0E-08
 QS| GAPW|                   eps_cpc:                                    1.0E-12
 QS| GAPW|   atom-r-grid: quadrature:                                     GC_LOG
 QS| GAPW|      atom-s-grid:  max l :                                          8
 QS| GAPW|      max_l_rho0 :                                                   2


 ATOMIC KIND INFORMATION

  1. Atomic kind: SI                                    Number of atoms:       1

     Orbital Basis Set                                       QZVPP-MOLOPT-GGA-ae

       Number of orbital shell sets:                                           3
       Number of orbital shells:                                              22
       Number of primitive Cartesian functions:                               24
       Number of Cartesian basis functions:                                   86
       Number of spherical basis functions:                                   70
       Norm type:                                                              2

       Normalised Cartesian orbitals:

                        Set   Shell   Orbital            Exponent    Coefficient

                          1       1    1s                5.705930       2.929464
                                                         2.480356      -0.174053
                                                         1.045789       0.015208
                                                         0.400675      -0.023035
                                                         0.151742      -0.004724
                                                         0.040187      -0.006838

                          1       2    2s                5.705930       0.241533
                                                         2.480356       1.335157
                                                         1.045789       0.007100
                                                         0.400675      -0.045815
                                                         0.151742       0.024375
                                                         0.040187      -0.006201

                          1       3    3s                5.705930      -0.113418
                                                         2.480356       0.007297
                                                         1.045789       0.875960
                                                         0.400675      -0.026696
                                                         0.151742      -0.041307
                                                         0.040187      -0.007681

                          1       4    4s                5.705930       0.110522
                                                         2.480356       0.028213
                                                         1.045789       0.079448
                                                         0.400675       0.205127
                                                         0.151742       0.060755
                                                         0.040187       0.000166

                          1       5    5s                5.705930      -0.347313
                                                         2.480356      -0.715697
                                                         1.045789       0.200732
                                                         0.400675      -0.450636
                                                         0.151742       0.348497
                                                         0.040187      -0.031609

                          1       6    6s                5.705930       0.223220
                                                         2.480356       0.061929
                                                         1.045789       0.084173
                                                         0.400675      -0.043714
                                                         0.151742       0.024973
                                                         0.040187       0.057006

                          1       7    2px               5.705930      -0.451693
                                                         2.480356      -0.002236
                                                         1.045789       1.575423
                                                         0.400675      -0.033985
                                                         0.151742       0.007873
                                                         0.040187       0.001190
                          1       7    2py               5.705930      -0.451693
                                                         2.480356      -0.002236
                                                         1.045789       1.575423
                                                         0.400675      -0.033985
                                                         0.151742       0.007873
                                                         0.040187       0.001190
                          1       7    2pz               5.705930      -0.451693
                                                         2.480356      -0.002236
                                                         1.045789       1.575423
                                                         0.400675      -0.033985
                                                         0.151742       0.007873
                                                         0.040187       0.001190

                          1       8    3px               5.705930       0.604347
                                                         2.480356      -0.187756
                                                         1.045789       0.076033
                                                         0.400675       0.379168
                                                         0.151742       0.020015
                                                         0.040187       0.001524
                          1       8    3py               5.705930       0.604347
                                                         2.480356      -0.187756
                                                         1.045789       0.076033
                                                         0.400675       0.379168
                                                         0.151742       0.020015
                                                         0.040187       0.001524
                          1       8    3pz               5.705930       0.604347
                                                         2.480356      -0.187756
                                                         1.045789       0.076033
                                                         0.400675       0.379168
                                                         0.151742       0.020015
                                                         0.040187       0.001524

                          1       9    4px               5.705930      -1.507815
                                                         2.480356       0.149444
                                                         1.045789      -0.122388
                                                         0.400675      -0.088675
                                                         0.151742       0.164513
                                                         0.040187      -0.002827
                          1       9    4py               5.705930      -1.507815
                                                         2.480356       0.149444
                                                         1.045789      -0.122388
                                                         0.400675      -0.088675
                                                         0.151742       0.164513
                                                         0.040187      -0.002827
                          1       9    4pz               5.705930      -1.507815
                                                         2.480356       0.149444
                                                         1.045789      -0.122388
                                                         0.400675      -0.088675
                                                         0.151742       0.164513
                                                         0.040187      -0.002827

                          1      10    5px               5.705930       0.125193
                                                         2.480356      -0.462972
                                                         1.045789      -0.079811
                                                         0.400675      -0.038561
                                                         0.151742       0.010039
                                                         0.040187       0.024842
                          1      10    5py               5.705930       0.125193
                                                         2.480356      -0.462972
                                                         1.045789      -0.079811
                                                         0.400675      -0.038561
                                                         0.151742       0.010039
                                                         0.040187       0.024842
                          1      10    5pz               5.705930       0.125193
                                                         2.480356      -0.462972
                                                         1.045789      -0.079811
                                                         0.400675      -0.038561
                                                         0.151742       0.010039
                                                         0.040187       0.024842

                          1      11    3dx2              5.705930      -0.983111
                                                         2.480356       8.680030
                                                         1.045789      -0.161541
                                                         0.400675       0.012609
                                                         0.151742      -0.001181
                                                         0.040187      -0.000348
                          1      11    3dxy              5.705930      -1.702799
                                                         2.480356      15.034253
                                                         1.045789      -0.279798
                                                         0.400675       0.021840
                                                         0.151742      -0.002045
                                                         0.040187      -0.000602
                          1      11    3dxz              5.705930      -1.702799
                                                         2.480356      15.034253
                                                         1.045789      -0.279798
                                                         0.400675       0.021840
                                                         0.151742      -0.002045
                                                         0.040187      -0.000602
                          1      11    3dy2              5.705930      -0.983111
                                                         2.480356       8.680030
                                                         1.045789      -0.161541
                                                         0.400675       0.012609
                                                         0.151742      -0.001181
                                                         0.040187      -0.000348
                          1      11    3dyz              5.705930      -1.702799
                                                         2.480356      15.034253
                                                         1.045789      -0.279798
                                                         0.400675       0.021840
                                                         0.151742      -0.002045
                                                         0.040187      -0.000602
                          1      11    3dz2              5.705930      -0.983111
                                                         2.480356       8.680030
                                                         1.045789      -0.161541
                                                         0.400675       0.012609
                                                         0.151742      -0.001181
                                                         0.040187      -0.000348

                          1      12    4dx2              5.705930      -2.737327
                                                         2.480356       0.231617
                                                         1.045789       1.036023
                                                         0.400675       0.158998
                                                         0.151742       0.003909
                                                         0.040187      -0.000281
                          1      12    4dxy              5.705930      -4.741190
                                                         2.480356       0.401173
                                                         1.045789       1.794445
                                                         0.400675       0.275393
                                                         0.151742       0.006771
                                                         0.040187      -0.000487
                          1      12    4dxz              5.705930      -4.741190
                                                         2.480356       0.401173
                                                         1.045789       1.794445
                                                         0.400675       0.275393
                                                         0.151742       0.006771
                                                         0.040187      -0.000487
                          1      12    4dy2              5.705930      -2.737327
                                                         2.480356       0.231617
                                                         1.045789       1.036023
                                                         0.400675       0.158998
                                                         0.151742       0.003909
                                                         0.040187      -0.000281
                          1      12    4dyz              5.705930      -4.741190
                                                         2.480356       0.401173
                                                         1.045789       1.794445
                                                         0.400675       0.275393
                                                         0.151742       0.006771
                                                         0.040187      -0.000487
                          1      12    4dz2              5.705930      -2.737327
                                                         2.480356       0.231617
                                                         1.045789       1.036023
                                                         0.400675       0.158998
                                                         0.151742       0.003909
                                                         0.040187      -0.000281

                          1      13    5dx2              5.705930       7.203749
                                                         2.480356      -1.089574
                                                         1.045789      -1.859262
                                                         0.400675       0.428745
                                                         0.151742       0.003193
                                                         0.040187      -0.000850
                          1      13    5dxy              5.705930      12.477259
                                                         2.480356      -1.887198
                                                         1.045789      -3.220335
                                                         0.400675       0.742608
                                                         0.151742       0.005531
                                                         0.040187      -0.001471
                          1      13    5dxz              5.705930      12.477259
                                                         2.480356      -1.887198
                                                         1.045789      -3.220335
                                                         0.400675       0.742608
                                                         0.151742       0.005531
                                                         0.040187      -0.001471
                          1      13    5dy2              5.705930       7.203749
                                                         2.480356      -1.089574
                                                         1.045789      -1.859262
                                                         0.400675       0.428745
                                                         0.151742       0.003193
                                                         0.040187      -0.000850
                          1      13    5dyz              5.705930      12.477259
                                                         2.480356      -1.887198
                                                         1.045789      -3.220335
                                                         0.400675       0.742608
                                                         0.151742       0.005531
                                                         0.040187      -0.001471
                          1      13    5dz2              5.705930       7.203749
                                                         2.480356      -1.089574
                                                         1.045789      -1.859262
                                                         0.400675       0.428745
                                                         0.151742       0.003193
                                                         0.040187      -0.000850

                          1      14    6dx2              5.705930       4.795293
                                                         2.480356       0.242595
                                                         1.045789      -0.042859
                                                         0.400675      -0.018755
                                                         0.151742       0.056190
                                                         0.040187       0.001062
                          1      14    6dxy              5.705930       8.305692
                                                         2.480356       0.420187
                                                         1.045789      -0.074234
                                                         0.400675      -0.032485
                                                         0.151742       0.097325
                                                         0.040187       0.001839
                          1      14    6dxz              5.705930       8.305692
                                                         2.480356       0.420187
                                                         1.045789      -0.074234
                                                         0.400675      -0.032485
                                                         0.151742       0.097325
                                                         0.040187       0.001839
                          1      14    6dy2              5.705930       4.795293
                                                         2.480356       0.242595
                                                         1.045789      -0.042859
                                                         0.400675      -0.018755
                                                         0.151742       0.056190
                                                         0.040187       0.001062
                          1      14    6dyz              5.705930       8.305692
                                                         2.480356       0.420187
                                                         1.045789      -0.074234
                                                         0.400675      -0.032485
                                                         0.151742       0.097325
                                                         0.040187       0.001839
                          1      14    6dz2              5.705930       4.795293
                                                         2.480356       0.242595
                                                         1.045789      -0.042859
                                                         0.400675      -0.018755
                                                         0.151742       0.056190
                                                         0.040187       0.001062

                          1      15    4fx3              5.705930       3.986949
                                                         2.480356      -0.829867
                                                         1.045789       0.872184
                                                         0.400675       0.109420
                                                         0.151742       0.001164
                                                         0.040187      -0.000105
                          1      15    4fx2y             5.705930       8.915090
                                                         2.480356      -1.855640
                                                         1.045789       1.950263
                                                         0.400675       0.244671
                                                         0.151742       0.002603
                                                         0.040187      -0.000236
                          1      15    4fx2z             5.705930       8.915090
                                                         2.480356      -1.855640
                                                         1.045789       1.950263
                                                         0.400675       0.244671
                                                         0.151742       0.002603
                                                         0.040187      -0.000236
                          1      15    4fxy2             5.705930       8.915090
                                                         2.480356      -1.855640
                                                         1.045789       1.950263
                                                         0.400675       0.244671
                                                         0.151742       0.002603
                                                         0.040187      -0.000236
                          1      15    4fxyz             5.705930      15.441388
                                                         2.480356      -3.214062
                                                         1.045789       3.377954
                                                         0.400675       0.423783
                                                         0.151742       0.004508
                                                         0.040187      -0.000408
                          1      15    4fxz2             5.705930       8.915090
                                                         2.480356      -1.855640
                                                         1.045789       1.950263
                                                         0.400675       0.244671
                                                         0.151742       0.002603
                                                         0.040187      -0.000236
                          1      15    4fy3              5.705930       3.986949
                                                         2.480356      -0.829867
                                                         1.045789       0.872184
                                                         0.400675       0.109420
                                                         0.151742       0.001164
                                                         0.040187      -0.000105
                          1      15    4fy2z             5.705930       8.915090
                                                         2.480356      -1.855640
                                                         1.045789       1.950263
                                                         0.400675       0.244671
                                                         0.151742       0.002603
                                                         0.040187      -0.000236
                          1      15    4fyz2             5.705930       8.915090
                                                         2.480356      -1.855640
                                                         1.045789       1.950263
                                                         0.400675       0.244671
                                                         0.151742       0.002603
                                                         0.040187      -0.000236
                          1      15    4fz3              5.705930       3.986949
                                                         2.480356      -0.829867
                                                         1.045789       0.872184
                                                         0.400675       0.109420
                                                         0.151742       0.001164
                                                         0.040187      -0.000105

                          1      16    5fx3              5.705930     -13.201708
                                                         2.480356      -2.682359
                                                         1.045789      -0.719122
                                                         0.400675       0.065712
                                                         0.151742       0.012973
                                                         0.040187       0.000088
                          1      16    5fx2y             5.705930     -29.519916
                                                         2.480356      -5.997938
                                                         1.045789      -1.608007
                                                         0.400675       0.146936
                                                         0.151742       0.029008
                                                         0.040187       0.000196
                          1      16    5fx2z             5.705930     -29.519916
                                                         2.480356      -5.997938
                                                         1.045789      -1.608007
                                                         0.400675       0.146936
                                                         0.151742       0.029008
                                                         0.040187       0.000196
                          1      16    5fxy2             5.705930     -29.519916
                                                         2.480356      -5.997938
                                                         1.045789      -1.608007
                                                         0.400675       0.146936
                                                         0.151742       0.029008
                                                         0.040187       0.000196
                          1      16    5fxyz             5.705930     -51.129994
                                                         2.480356     -10.388733
                                                         1.045789      -2.785149
                                                         0.400675       0.254500
                                                         0.151742       0.050243
                                                         0.040187       0.000339
                          1      16    5fxz2             5.705930     -29.519916
                                                         2.480356      -5.997938
                                                         1.045789      -1.608007
                                                         0.400675       0.146936
                                                         0.151742       0.029008
                                                         0.040187       0.000196
                          1      16    5fy3              5.705930     -13.201708
                                                         2.480356      -2.682359
                                                         1.045789      -0.719122
                                                         0.400675       0.065712
                                                         0.151742       0.012973
                                                         0.040187       0.000088
                          1      16    5fy2z             5.705930     -29.519916
                                                         2.480356      -5.997938
                                                         1.045789      -1.608007
                                                         0.400675       0.146936
                                                         0.151742       0.029008
                                                         0.040187       0.000196
                          1      16    5fyz2             5.705930     -29.519916
                                                         2.480356      -5.997938
                                                         1.045789      -1.608007
                                                         0.400675       0.146936
                                                         0.151742       0.029008
                                                         0.040187       0.000196
                          1      16    5fz3              5.705930     -13.201708
                                                         2.480356      -2.682359
                                                         1.045789      -0.719122
                                                         0.400675       0.065712
                                                         0.151742       0.012973
                                                         0.040187       0.000088

                          1      17    5gx4              5.705930      -4.702040
                                                         2.480356      -0.066676
                                                         1.045789       0.648389
                                                         0.400675       0.055232
                                                         0.151742       0.000099
                                                         0.040187       0.000012
                          1      17    5gx3y             5.705930     -12.440430
                                                         2.480356      -0.176409
                                                         1.045789       1.715477
                                                         0.400675       0.146130
                                                         0.151742       0.000262
                                                         0.040187       0.000032
                          1      17    5gx3z             5.705930     -12.440430
                                                         2.480356      -0.176409
                                                         1.045789       1.715477
                                                         0.400675       0.146130
                                                         0.151742       0.000262
                                                         0.040187       0.000032
                          1      17    5gx2y2            5.705930     -16.060526
                                                         2.480356      -0.227743
                                                         1.045789       2.214671
                                                         0.400675       0.188653
                                                         0.151742       0.000339
                                                         0.040187       0.000041
                          1      17    5gx2yz            5.705930     -27.817646
                                                         2.480356      -0.394463
                                                         1.045789       3.835923
                                                         0.400675       0.326756
                                                         0.151742       0.000587
                                                         0.040187       0.000071
                          1      17    5gx2z2            5.705930     -16.060526
                                                         2.480356      -0.227743
                                                         1.045789       2.214671
                                                         0.400675       0.188653
                                                         0.151742       0.000339
                                                         0.040187       0.000041
                          1      17    5gxy3             5.705930     -12.440430
                                                         2.480356      -0.176409
                                                         1.045789       1.715477
                                                         0.400675       0.146130
                                                         0.151742       0.000262
                                                         0.040187       0.000032
                          1      17    5gxy2z            5.705930     -27.817646
                                                         2.480356      -0.394463
                                                         1.045789       3.835923
                                                         0.400675       0.326756
                                                         0.151742       0.000587
                                                         0.040187       0.000071
                          1      17    5gxyz2            5.705930     -27.817646
                                                         2.480356      -0.394463
                                                         1.045789       3.835923
                                                         0.400675       0.326756
                                                         0.151742       0.000587
                                                         0.040187       0.000071
                          1      17    5gxz3             5.705930     -12.440430
                                                         2.480356      -0.176409
                                                         1.045789       1.715477
                                                         0.400675       0.146130
                                                         0.151742       0.000262
                                                         0.040187       0.000032
                          1      17    5gy4              5.705930      -4.702040
                                                         2.480356      -0.066676
                                                         1.045789       0.648389
                                                         0.400675       0.055232
                                                         0.151742       0.000099
                                                         0.040187       0.000012
                          1      17    5gy3z             5.705930     -12.440430
                                                         2.480356      -0.176409
                                                         1.045789       1.715477
                                                         0.400675       0.146130
                                                         0.151742       0.000262
                                                         0.040187       0.000032
                          1      17    5gy2z2            5.705930     -16.060526
                                                         2.480356      -0.227743
                                                         1.045789       2.214671
                                                         0.400675       0.188653
                                                         0.151742       0.000339
                                                         0.040187       0.000041
                          1      17    5gyz3             5.705930     -12.440430
                                                         2.480356      -0.176409
                                                         1.045789       1.715477
                                                         0.400675       0.146130
                                                         0.151742       0.000262
                                                         0.040187       0.000032
                          1      17    5gz4              5.705930      -4.702040
                                                         2.480356      -0.066676
                                                         1.045789       0.648389
                                                         0.400675       0.055232
                                                         0.151742       0.000099
                                                         0.040187       0.000012

                          2       1    1s             1775.866877       1.962453
                                                       420.859436       0.973883
                                                       136.476298       1.951651
                                                        51.694334       3.638615
                                                        21.538365       4.229982
                                                         9.487301       0.722054
                                                         4.298211      -0.081986
                                                         2.160066      -0.070742

                          2       2    2s             1775.866877      35.302586
                                                       420.859436      -1.517040
                                                       136.476298      -0.012166
                                                        51.694334     -21.606899
                                                        21.538365       4.432650
                                                         9.487301       1.037002
                                                         4.298211       0.192130
                                                         2.160066       0.029063

                          2       3    2px            1775.866877     -10.165697
                                                       420.859436       4.290492
                                                       136.476298       7.022535
                                                        51.694334       8.617377
                                                        21.538365       8.095138
                                                         9.487301       6.645401
                                                         4.298211       3.396718
                                                         2.160066       1.225224
                          2       3    2py            1775.866877     -10.165697
                                                       420.859436       4.290492
                                                       136.476298       7.022535
                                                        51.694334       8.617377
                                                        21.538365       8.095138
                                                         9.487301       6.645401
                                                         4.298211       3.396718
                                                         2.160066       1.225224
                          2       3    2pz            1775.866877     -10.165697
                                                       420.859436       4.290492
                                                       136.476298       7.022535
                                                        51.694334       8.617377
                                                        21.538365       8.095138
                                                         9.487301       6.645401
                                                         4.298211       3.396718
                                                         2.160066       1.225224

                          2       4    3px            1775.866877    1370.241968
                                                       420.859436     196.163669
                                                       136.476298     -23.891013
                                                        51.694334      29.106446
                                                        21.538365      19.351651
                                                         9.487301       7.349860
                                                         4.298211       6.629928
                                                         2.160066      -4.753547
                          2       4    3py            1775.866877    1370.241968
                                                       420.859436     196.163669
                                                       136.476298     -23.891013
                                                        51.694334      29.106446
                                                        21.538365      19.351651
                                                         9.487301       7.349860
                                                         4.298211       6.629928
                                                         2.160066      -4.753547
                          2       4    3pz            1775.866877    1370.241968
                                                       420.859436     196.163669
                                                       136.476298     -23.891013
                                                        51.694334      29.106446
                                                        21.538365      19.351651
                                                         9.487301       7.349860
                                                         4.298211       6.629928
                                                         2.160066      -4.753547

                          3       1    1s           918070.733998       1.553499
                                                    137485.366107       0.659559
                                                     31287.807352       1.734598
                                                      8861.594484       2.768898
                                                      2890.699766       4.579340
                                                      1043.365894       6.694628
                                                       406.791462       7.783868
                                                       168.485987       9.852520
                                                        73.201666       7.188492
                                                        32.931485       2.359352

     RI Auxiliary Basis Set                                    aug-cc-pV5Z-RIFIT

       Number of orbital shell sets:                                          55
       Number of orbital shells:                                              55
       Number of primitive Cartesian functions:                               55
       Number of Cartesian basis functions:                                  419
       Number of spherical basis functions:                                  279
       Norm type:                                                              2

       Normalised Cartesian orbitals:

                        Set   Shell   Orbital            Exponent    Coefficient

                          1       1    1s                0.050000       0.075359

                          2       1    1px               0.065000       0.046782
                          2       1    1py               0.065000       0.046782
                          2       1    1pz               0.065000       0.046782

                          3       1    1dx2              0.080000       0.019807
                          3       1    1dxy              0.080000       0.034307
                          3       1    1dxz              0.080000       0.034307
                          3       1    1dy2              0.080000       0.019807
                          3       1    1dyz              0.080000       0.034307
                          3       1    1dz2              0.080000       0.019807

                          4       1    1fx3              0.097892       0.007891
                          4       1    1fx2y             0.097892       0.017645
                          4       1    1fx2z             0.097892       0.017645
                          4       1    1fxy2             0.097892       0.017645
                          4       1    1fxyz             0.097892       0.030562
                          4       1    1fxz2             0.097892       0.017645
                          4       1    1fy3              0.097892       0.007891
                          4       1    1fy2z             0.097892       0.017645
                          4       1    1fyz2             0.097892       0.017645
                          4       1    1fz3              0.097892       0.007891

                          5       1    1s                0.110014       0.136143

                          6       1    1gx4              0.121035       0.003345
                          6       1    1gx3y             0.121035       0.008851
                          6       1    1gx3z             0.121035       0.008851
                          6       1    1gx2y2            0.121035       0.011427
                          6       1    1gx2yz            0.121035       0.019791
                          6       1    1gx2z2            0.121035       0.011427
                          6       1    1gxy3             0.121035       0.008851
                          6       1    1gxy2z            0.121035       0.019791
                          6       1    1gxyz2            0.121035       0.019791
                          6       1    1gxz3             0.121035       0.008851
                          6       1    1gy4              0.121035       0.003345
                          6       1    1gy3z             0.121035       0.008851
                          6       1    1gy2z2            0.121035       0.011427
                          6       1    1gyz3             0.121035       0.008851
                          6       1    1gz4              0.121035       0.003345

                          7       1    1px               0.130881       0.112211
                          7       1    1py               0.130881       0.112211
                          7       1    1pz               0.130881       0.112211

                          8       1    1dx2              0.146150       0.056860
                          8       1    1dxy              0.146150       0.098485
                          8       1    1dxz              0.146150       0.098485
                          8       1    1dy2              0.146150       0.056860
                          8       1    1dyz              0.146150       0.098485
                          8       1    1dz2              0.146150       0.056860

                          9       1    1s                0.197098       0.210825

                         10       1    1fx3              0.216289       0.046966
                         10       1    1fx2y             0.216289       0.105019
                         10       1    1fx2z             0.216289       0.105019
                         10       1    1fxy2             0.216289       0.105019
                         10       1    1fxyz             0.216289       0.181898
                         10       1    1fxz2             0.216289       0.105019
                         10       1    1fy3              0.216289       0.046966
                         10       1    1fy2z             0.216289       0.105019
                         10       1    1fyz2             0.216289       0.105019
                         10       1    1fz3              0.216289       0.046966

                         11       1    1hx5              0.230752       0.006318
                         11       1    1hx4y             0.230752       0.018953
                         11       1    1hx4z             0.230752       0.018953
                         11       1    1hx3y2            0.230752       0.028952
                         11       1    1hx3yz            0.230752       0.050146
                         11       1    1hx3z2            0.230752       0.028952
                         11       1    1hx2y3            0.230752       0.028952
                         11       1    1hx2y2z           0.230752       0.064738
                         11       1    1hx2yz2           0.230752       0.064738
                         11       1    1hx2z3            0.230752       0.028952
                         11       1    1hxy4             0.230752       0.018953
                         11       1    1hxy3z            0.230752       0.050146
                         11       1    1hxy2z2           0.230752       0.064738
                         11       1    1hxyz3            0.230752       0.050146
                         11       1    1hxz4             0.230752       0.018953
                         11       1    1hy5              0.230752       0.006318
                         11       1    1hy4z             0.230752       0.018953
                         11       1    1hy3z2            0.230752       0.028952
                         11       1    1hy2z3            0.230752       0.028952
                         11       1    1hyz4             0.230752       0.018953
                         11       1    1hz5              0.230752       0.006318

                         12       1    1dx2              0.250199       0.145683
                         12       1    1dxy              0.250199       0.252331
                         12       1    1dxz              0.250199       0.252331
                         12       1    1dy2              0.250199       0.145683
                         12       1    1dyz              0.250199       0.252331
                         12       1    1dz2              0.250199       0.145683

                         13       1    1gx4              0.256173       0.026297
                         13       1    1gx3y             0.256173       0.069575
                         13       1    1gx3z             0.256173       0.069575
                         13       1    1gx2y2            0.256173       0.089821
                         13       1    1gx2yz            0.256173       0.155574
                         13       1    1gx2z2            0.256173       0.089821
                         13       1    1gxy3             0.256173       0.069575
                         13       1    1gxy2z            0.256173       0.155574
                         13       1    1gxyz2            0.256173       0.155574
                         13       1    1gxz3             0.256173       0.069575
                         13       1    1gy4              0.256173       0.026297
                         13       1    1gy3z             0.256173       0.069575
                         13       1    1gy2z2            0.256173       0.089821
                         13       1    1gyz3             0.256173       0.069575
                         13       1    1gz4              0.256173       0.026297

                         14       1    1px               0.272779       0.280998
                         14       1    1py               0.272779       0.280998
                         14       1    1pz               0.272779       0.280998

                         15       1    1s                0.382637       0.346737

                         16       1    1dx2              0.406464       0.340564
                         16       1    1dxy              0.406464       0.589873
                         16       1    1dxz              0.406464       0.589873
                         16       1    1dy2              0.406464       0.340564
                         16       1    1dyz              0.406464       0.589873
                         16       1    1dz2              0.406464       0.340564

                         17       1    1fx3              0.420735       0.209881
                         17       1    1fx2y             0.420735       0.469309
                         17       1    1fx2z             0.420735       0.469309
                         17       1    1fxy2             0.420735       0.469309
                         17       1    1fxyz             0.420735       0.812867
                         17       1    1fxz2             0.420735       0.469309
                         17       1    1fy3              0.420735       0.209881
                         17       1    1fy2z             0.420735       0.469309
                         17       1    1fyz2             0.420735       0.469309
                         17       1    1fz3              0.420735       0.209881

                         18       1    1px               0.458457       0.537729
                         18       1    1py               0.458457       0.537729
                         18       1    1pz               0.458457       0.537729

                         19       1    1ix6              0.466340       0.025604
                         19       1    1ix5y             0.466340       0.084920
                         19       1    1ix5z             0.466340       0.084920
                         19       1    1ix4y2            0.466340       0.147085
                         19       1    1ix4yz            0.466340       0.254760
                         19       1    1ix4z2            0.466340       0.147085
                         19       1    1ix3y3            0.466340       0.174034
                         19       1    1ix3y2z           0.466340       0.389152
                         19       1    1ix3yz2           0.466340       0.389152
                         19       1    1ix3z3            0.466340       0.174034
                         19       1    1ix2y4            0.466340       0.147085
                         19       1    1ix2y3z           0.466340       0.389152
                         19       1    1ix2y2z2          0.466340       0.502393
                         19       1    1ix2yz3           0.466340       0.389152
                         19       1    1ix2z4            0.466340       0.147085
                         19       1    1ixy5             0.466340       0.084920
                         19       1    1ixy4z            0.466340       0.254760
                         19       1    1ixy3z2           0.466340       0.389152
                         19       1    1ixy2z3           0.466340       0.389152
                         19       1    1ixyz4            0.466340       0.254760
                         19       1    1ixz5             0.466340       0.084920
                         19       1    1iy6              0.466340       0.025604
                         19       1    1iy5z             0.466340       0.084920
                         19       1    1iy4z2            0.466340       0.147085
                         19       1    1iy3z3            0.466340       0.174034
                         19       1    1iy2z4            0.466340       0.147085
                         19       1    1iyz5             0.466340       0.084920
                         19       1    1iz6              0.466340       0.025604

                         20       1    1hx5              0.484425       0.070361
                         20       1    1hx4y             0.484425       0.211082
                         20       1    1hx4z             0.484425       0.211082
                         20       1    1hx3y2            0.484425       0.322433
                         20       1    1hx3yz            0.484425       0.558471
                         20       1    1hx3z2            0.484425       0.322433
                         20       1    1hx2y3            0.484425       0.322433
                         20       1    1hx2y2z           0.484425       0.720983
                         20       1    1hx2yz2           0.484425       0.720983
                         20       1    1hx2z3            0.484425       0.322433
                         20       1    1hxy4             0.484425       0.211082
                         20       1    1hxy3z            0.484425       0.558471
                         20       1    1hxy2z2           0.484425       0.720983
                         20       1    1hxyz3            0.484425       0.558471
                         20       1    1hxz4             0.484425       0.211082
                         20       1    1hy5              0.484425       0.070361
                         20       1    1hy4z             0.484425       0.211082
                         20       1    1hy3z2            0.484425       0.322433
                         20       1    1hy2z3            0.484425       0.322433
                         20       1    1hyz4             0.484425       0.211082
                         20       1    1hz5              0.484425       0.070361

                         21       1    1gx4              0.509226       0.173956
                         21       1    1gx3y             0.509226       0.460244
                         21       1    1gx3z             0.509226       0.460244
                         21       1    1gx2y2            0.509226       0.594173
                         21       1    1gx2yz            0.509226       1.029138
                         21       1    1gx2z2            0.509226       0.594173
                         21       1    1gxy3             0.509226       0.460244
                         21       1    1gxy2z            0.509226       1.029138
                         21       1    1gxyz2            0.509226       1.029138
                         21       1    1gxz3             0.509226       0.460244
                         21       1    1gy4              0.509226       0.173956
                         21       1    1gy3z             0.509226       0.460244
                         21       1    1gy2z2            0.509226       0.594173
                         21       1    1gyz3             0.509226       0.460244
                         21       1    1gz4              0.509226       0.173956

                         22       1    1s                0.592285       0.481181

                         23       1    1fx3              0.642233       0.543579
                         23       1    1fx2y             0.642233       1.215480
                         23       1    1fx2z             0.642233       1.215480
                         23       1    1fxy2             0.642233       1.215480
                         23       1    1fxyz             0.642233       2.105273
                         23       1    1fxz2             0.642233       1.215480
                         23       1    1fy3              0.642233       0.543579
                         23       1    1fy2z             0.642233       1.215480
                         23       1    1fyz2             0.642233       1.215480
                         23       1    1fz3              0.642233       0.543579

                         24       1    1px               0.674151       0.870736
                         24       1    1py               0.674151       0.870736
                         24       1    1pz               0.674151       0.870736

                         25       1    1dx2              0.748983       0.992511
                         25       1    1dxy              0.748983       1.719080
                         25       1    1dxz              0.748983       1.719080
                         25       1    1dy2              0.748983       0.992511
                         25       1    1dyz              0.748983       1.719080
                         25       1    1dz2              0.748983       0.992511

                         26       1    1ix6              0.794316       0.188648
                         26       1    1ix5y             0.794316       0.625675
                         26       1    1ix5z             0.794316       0.625675
                         26       1    1ix4y2            0.794316       1.083702
                         26       1    1ix4yz            0.794316       1.877026
                         26       1    1ix4z2            0.794316       1.083702
                         26       1    1ix3y3            0.794316       1.282253
                         26       1    1ix3y2z           0.794316       2.867205
                         26       1    1ix3yz2           0.794316       2.867205
                         26       1    1ix3z3            0.794316       1.282253
                         26       1    1ix2y4            0.794316       1.083702
                         26       1    1ix2y3z           0.794316       2.867205
                         26       1    1ix2y2z2          0.794316       3.701546
                         26       1    1ix2yz3           0.794316       2.867205
                         26       1    1ix2z4            0.794316       1.083702
                         26       1    1ixy5             0.794316       0.625675
                         26       1    1ixy4z            0.794316       1.877026
                         26       1    1ixy3z2           0.794316       2.867205
                         26       1    1ixy2z3           0.794316       2.867205
                         26       1    1ixyz4            0.794316       1.877026
                         26       1    1ixz5             0.794316       0.625675
                         26       1    1iy6              0.794316       0.188648
                         26       1    1iy5z             0.794316       0.625675
                         26       1    1iy4z2            0.794316       1.083702
                         26       1    1iy3z3            0.794316       1.282253
                         26       1    1iy2z4            0.794316       1.083702
                         26       1    1iyz5             0.794316       0.625675
                         26       1    1iz6              0.794316       0.188648

                         27       1    1gx4              0.827003       0.660055
                         27       1    1gx3y             0.827003       1.746341
                         27       1    1gx3z             0.827003       1.746341
                         27       1    1gx2y2            0.827003       2.254516
                         27       1    1gx2yz            0.827003       3.904936
                         27       1    1gx2z2            0.827003       2.254516
                         27       1    1gxy3             0.827003       1.746341
                         27       1    1gxy2z            0.827003       3.904936
                         27       1    1gxyz2            0.827003       3.904936
                         27       1    1gxz3             0.827003       1.746341
                         27       1    1gy4              0.827003       0.660055
[...]

 M. Iannuzzi, T. Chassaing, T. Wallman, J. Hutter.
 CHIMIA 59, 499-503 (2005).
 Ground and excited state density functional calculations with the Gaussian and 
 augmented-plane-wave method.
 https://doi.org/10.2533/000942905777676164

 M. Frigo, S. G. Johnson.
 Proc. IEEE 93, 216-231 (2005).
 The design and implementation of FFTW3.
 https://doi.org/10.1109/JPROC.2004.840301

 J. VandeVondele, J. Hutter.
 J. Chem. Phys. 118, 4365-4369 (2003).
 An efficient orbital transformation method for electronic structure 
 calculations.
 https://doi.org/10.1063/1.1543154

 R. L. Martin.
 J. Chem. Phys. 118, 4775-4777 (2003).
 Natural transition orbitals.
 https://doi.org/10.1063/1.1558471

 M. Krack, M. Parrinello.
 Phys. Chem. Chem. Phys. 2, 2105-2112 (2000).
 All-electron ab-initio molecular dynamics.
 https://doi.org/10.1039/b001167n

 G. Lippert, J. Hutter, M. Parrinello.
 Theor. Chem. Acc. 103, 124-140 (1999).
 The Gaussian and augmented-plane-wave density functional method for ab initio 
 molecular dynamics simulations.
 https://doi.org/10.1007/s002140050523

 J. P. Perdew, K. Burke, M. Ernzerhof.
 Phys. Rev. Lett. 77, 3865-3868 (1996).
 Generalized gradient approximation made simple.
 https://doi.org/10.1103/PhysRevLett.77.3865


 -------------------------------------------------------------------------------
 -                                                                             -
 -                                T I M I N G                                  -
 -                                                                             -
 -------------------------------------------------------------------------------
 SUBROUTINE                       CALLS  ASD         SELF TIME        TOTAL TIME
                                MAXIMUM       AVERAGE  MAXIMUM  AVERAGE  MAXIMUM
 CP2K                                 1  1.0    0.029    0.058 2123.742 2123.742
 qs_energies                          1  2.0    0.001    0.001 2121.959 2121.959
 scf_env_do_scf                       1  3.0    0.001    0.001 1774.831 1774.831
 qs_ks_update_qs_env                632  5.0    0.004    0.004 1592.861 1593.426
 rebuild_ks_matrix                  630  6.0    0.002    0.002 1592.758 1593.325
 qs_ks_build_kohn_sham_matrix       630  7.0    0.089    0.103 1592.757 1593.323
 scf_env_do_scf_inner_loop          630  4.0    0.012    0.039 1148.000 1148.000
 integrate_four_center              910  9.3   72.817   94.945  811.223  811.758
 hfx_ks_matrix                      630  8.0    0.025    0.028  750.953  751.398
 mp_sync                           5106 11.3  619.598  647.863  619.598  647.863
 integrate_four_center_main         910 10.3   10.199  331.690   14.382  645.413
 init_scf_loop                        2  4.0    0.000    0.000  626.828  626.829
 fft_wrap_pw1pw2                  11644 10.2    0.231    0.310  387.136  396.615
 pw_poisson_solve                   770  8.4    8.921   11.963  393.383  394.227
 fft_wrap_pw1pw2_250               8275 11.5   14.373   16.609  374.200  384.152
 qs_energies_properties               1  3.0    0.000    0.000  346.547  346.547
 tddfpt                               1  4.0    0.000    0.001  346.547  346.547
 tddfpt_energies                      1  5.0    0.000    0.001  346.485  346.485
 tddfpt_davidson_solver               1  6.0    0.001    0.002  344.696  344.697
 tddfpt_compute_Aop_evects            7  7.0    0.000    0.000  343.279  343.279
 fft3d_ps                         11644 12.2  127.511  160.161  325.632  338.246
 integrate_four_center_bin        70415 11.3    4.183  313.723    4.183  313.723
 prepare_gapw_den                   771  8.2    0.016    0.018  305.650  306.423
 fhxc_kernel                          7  8.0    0.007    0.008  280.301  280.301
 calculate_rho_atom                1542  9.2   16.929  231.320   16.929  231.320
 ps_wavelet_solve                   770  9.4  171.180  195.910  220.027  222.952
 mp_sum_dv                        28924 11.3  215.774  218.414  215.774  218.414
 qs_rho_update_rho_low              772  5.7    0.008    0.010  203.205  203.241
 calculate_rho_elec                 772  6.7    3.754    4.454  199.722  199.725
 mp_alltoall_z22v                 11644 14.2  172.481  184.100  172.481  184.100
 mp_alltoall_d54                    770 10.4   28.846  169.427   28.846  169.427
 xc_pw_derive                      3366 11.0    0.040    0.048  153.927  156.470
 qs_vxc_create                      630  8.0    0.007    0.008  148.590  148.593
 density_rs2pw                      772  7.7    0.047    0.056  131.550  134.883
 x_to_yz                           5259 13.7   15.908   18.594  118.028  120.962
 tddfpt_apply_coulomb               140  9.0    0.003    0.004  117.701  118.286
 xc_rho_set_and_dset_create         631 10.0    1.472    2.079   92.734  107.040
 mp_sum_d                         15030 10.2   91.227   98.123   91.227   98.123
 calc_screening_functions             1 10.0   84.823   89.769   85.551   90.510
 yz_to_x                           5262 12.9    8.468   10.175   78.743   86.372
 transfer_rs2pw                    3860  9.0    0.109    0.149   83.023   84.807
 gaVxcgb_GC                         702  9.4    0.862   82.791    0.862   82.791
 xc_vxc_pw_create                   211  9.0    1.345    1.592   75.707   75.709
 xc_exc_calc                        419  9.0    2.034    2.415   72.876   72.877
 xc_pw_divergence                   351 10.4    0.015    0.018   67.010   69.162
 put_rho0_on_grid                   771  9.2    3.796    4.545   67.826   68.599
 grid_collocate_task_list           772  7.7   60.999   65.352   60.999   65.352
 tddfpt_apply_hfx                     7  8.0    0.003    0.003   62.381   62.381
 mp_alltoall_d11v                 19304 11.9   43.197   61.191   43.197   61.191
 tddft_hfx_matrix                   280  9.0    0.008    0.008   60.312   60.423
 transfer_pw2rs                    2175 10.4    0.038    0.045   56.468   58.398
 mp_waitany                      113670 11.6   51.132   56.426   51.132   56.426
 integrate_v_rspace                 351  9.0    0.008    0.010   54.423   54.819
 calculate_vxc_atom                 630  8.0    0.229    5.580   54.598   54.601
 transfer_rs2pw_250                1544 10.5   21.828   23.377   50.524   52.885
 potential_pw2rs                    351 10.0    0.121    0.133   49.146   49.555
 tddfpt_apply_xc_analytic           140  9.0    0.198    0.268   47.359   48.025
 integrate_vhg0_rspace              770  8.4    2.150    2.939   39.955   41.043
 transfer_pw2rs_250                1122 10.9   14.214   15.682   38.559   40.221
 calculate_xc_2nd_deriv_atom        140  9.0    0.043    2.454    0.420   37.292
 sum_up_and_integrate               211  8.0    0.003    0.003   33.201   33.448
 mp_alltoall_d45                    771 10.4   18.218   32.821   18.218   32.821
 xc_calc_2nd_deriv_analytical       700 10.0    1.664    1.773   27.821   27.904
 mp_waitall_1                   1067864 13.4   17.303   24.789   17.303   24.789
 pw_scatter_p                      5610 12.7   20.730   21.166   20.730   21.166
 Vh_1c_gg_integrals                 770  8.4    0.296   19.106   19.927   20.290
 xc_functional_eval                3711 11.0    0.006    0.014    6.083   19.289
 pbe_lda_eval                      3711 12.0    6.078   19.275    6.078   19.275
 cp2k_distribution_to_z_slices      770  9.4    7.392    8.071   17.646   18.808
 pw_derive                         5676 11.3   16.858   18.145   16.858   18.145
 transfer_rs2pw_30                  772  9.7    7.268    7.625   17.318   17.844
 pw_gather_p                       6034 11.8   16.069   17.698   16.069   17.698
 qs_scf_new_mos                     630  5.0    0.003    0.003   15.144   15.185
 qs_scf_loop_do_ot                  630  6.0    0.003    0.004   15.141   15.182
 integrate_four_center_getP         910 10.3    0.158    0.179   12.869   14.929
 ot_scf_mini                        630  7.0    0.008    0.009   14.124   14.166
 dbcsr_multiply_generic            8468  9.8    0.347    0.364   13.960   14.112
 rs_grid_zero                      3015 10.9   13.270   13.890   13.270   13.890
 mp_sendrecv_dv                  146680 10.7   12.406   12.956   12.406   12.956
 pw_copy                           9180 10.6   11.835   12.694   11.835   12.694
 fft_wrap_pw1pw2_90                1123 10.4    0.392    0.550    9.849   12.500
 pw_poisson_set                     771  9.4    0.027    0.031   11.907   12.278
 transfer_rs2pw_90                  772  9.7    3.277    3.585   11.375   12.184
 transfer_pw2rs_30                  351 12.0    5.979    6.719    9.942   10.451
 mp_sum_dm                         4665  8.3    8.310    9.442    8.310    9.442
 mp_sum_l                         39292 10.7    6.875    9.250    6.875    9.250
 mp_isendrecv_dv                 239590 11.8    3.272    8.013    3.272    8.013
 pw_integral_ab_c1d_c1d_gs          770  9.4    5.628    5.690    6.963    7.868
 integrate_four_center_load         910 10.3    0.002    0.003    4.984    7.259
 hfx_load_balance                     1 11.0    0.000    0.000    4.982    7.257
 hfx_load_balance_range               1 12.0    0.000    0.000    4.975    7.250
 multiply_cannon                   8468 10.8    0.764    0.789    6.782    7.051
 integrate_four_center_dist_KS      910 10.3    0.179    0.215    6.724    6.750
 transfer_pw2rs_90                  351 12.0    1.645    1.860    6.102    6.708
 calculate_rho0_atom               1542  9.2    5.415    6.429    5.415    6.429
 pw_copy_to_array                  6034 11.8    5.566    6.145    5.566    6.145
 qs_ot_get_p                        632  8.0    0.004    0.004    6.011    6.027
 pw_axpy                           5753  9.4    5.278    5.708    5.278    5.708
 rs_gather_matrices                 351 10.0    0.004    0.105    5.000    5.376
 multiply_cannon_loop              8468 11.8    1.268    1.488    4.943    5.181
 mp_isend_dm3                     22734 11.6    2.561    5.168    2.561    5.168
 grid_integrate_task_list           351 10.0    0.266    5.152    0.266    5.152
 pw_copy_from_array                5610 12.7    4.053    5.152    4.053    5.152
 mp_isend_dv                     455078 13.3    2.716    4.987    2.716    4.987
 ot_mini                            630  8.0    0.003    0.003    4.652    4.683
 cp_dbcsr_sm_fm_multiply            890  8.5    0.017    0.019    4.230    4.519
 qs_ot_p2m_diag                     500  9.0    0.010    0.018    4.220    4.242
 qs_ot_get_derivative               211  9.0    0.001    0.002    4.226    4.232
 make_m2s                         16936 10.8    0.290    0.321    3.845    4.097
 pw_zero                           5187 10.4    3.808    4.049    3.808    4.049
 transfer_rs2pw_10                  772  9.7    1.339    1.450    3.695    3.914
 update_ks_atom                     770  8.2    0.199    1.165    2.548    3.828
 dbcsr_complete_redistribute       3840 10.9    0.144    0.252    3.319    3.602
 calculate_rho_atom_coeff           772  6.7    0.441    1.288    3.475    3.511
 mp_max_i                          1237  7.1    2.653    3.379    2.653    3.379
 mp_irecv_dm3                     22734 11.6    2.065    3.337    2.065    3.337
 mp_bcast_dm                       3715  9.7    2.365    3.238    2.365    3.238
 make_images                      16936 11.8    0.665    0.704    2.723    2.764
 qs_ot_get_derivative_diag          166 10.0    0.004    0.004    2.681    2.685
 cp_dbcsr_syevd                     500 10.0    0.028    0.029    2.641    2.650
 copy_fm_to_dbcsr                  2384  9.9    0.011    0.011    2.134    2.417
 fft_wrap_pw1pw2_30                1123 10.4    0.071    0.088    2.071    2.320
 copy_dbcsr_to_fm                  1454  9.9    0.019    0.019    2.258    2.294
 scale_and_distribute              1540 10.4    1.916    2.161    1.916    2.161
 transfer_pw2rs_10                  351 12.0    0.646    0.704    1.827    2.090
 cp_fm_syevd                        549 10.7    0.003    0.004    2.018    2.028
 qs_ot_get_orbitals                 630  8.0    0.002    0.003    1.952    1.956
 offload_free_buffer                778  9.3    0.930    1.880    0.930    1.880
 cp_fm_redistribute_end             549 11.7    0.912    1.572    0.925    1.587
 powell_optimize                 586840 11.0    1.469    1.513    1.469    1.513
 cp_dbcsr_sm_fm_multiply_core       890  9.5    0.002    0.002    1.298    1.460
 calc_pair_dist_radii                 1 10.0    0.679    0.685    1.420    1.445
 create_qs_kind_set                   1  2.0    0.000    0.000    1.364    1.364
 read_qs_kind                         2  3.0    0.740    0.752    1.364    1.364
 cp_fm_syevd_base                   549 11.7    0.653    1.312    0.653    1.312
 mp_alltoall_i22                   5547 12.0    1.066    1.198    1.066    1.198
 mp_alltoall_i11v                 13731 12.0    1.163    1.164    1.163    1.164
 multiply_cannon_metrocomm4      186296 12.8    0.550    0.574    1.059    1.131
 make_images_sizes                16936 12.8    0.018    0.018    1.036    1.106
 multiply_cannon_metrocomm3      203232 12.8    0.320    0.337    0.824    1.099
 mp_alltoall_i44                  16936 13.8    1.019    1.089    1.019    1.089
 multiply_cannon_metrocomm2      177828 12.8    0.526    0.546    0.968    1.048
 calculate_dm_sparse                631  7.0    0.002    0.002    1.016    1.028
 dbcsr_desymmetrize_deep           1455 10.9    0.027    0.031    0.908    0.943
 dbcsr_make_images_dense          13454 11.9    0.213    0.234    0.612    0.878
 tddfpt_orthonormalize_psi1_psi       8  6.9    0.015    0.015    0.850    0.850
 fft_wrap_pw1pw2_10                1123 10.4    0.018    0.019    0.784    0.827
 pw_poisson_rebuild                 770  9.4    0.001    0.001    0.813    0.826
 ps_wavelet_create                    1 10.0    0.000    0.000    0.812    0.825
 RS_z_slice_distribution              1 11.0    0.680    0.767    0.812    0.825
 tddfpt_print_nto_analysis            1  6.0    0.002    0.003    0.784    0.784
 multiply_cannon_metrocomm1      203232 12.8    0.223    0.234    0.536    0.766
 mp_rank_compare                  11644 13.2    0.696    0.746    0.696    0.746
 vxc_of_r_new                      2520  9.0    0.001    0.058    0.007    0.690
 dbcsr_create_new                172004 12.4    0.466    0.494    0.634    0.660
 tddfpt_construct_ground_state_       1  6.0    0.000    0.000    0.658    0.659
 rs_scatter_matrices                772  7.7    0.006    0.029    0.646    0.649
 mp_allgather_i34                  8468 11.8    0.572    0.640    0.572    0.640
 cp_dbcsr_plus_fm_fm_t              141  9.0    0.002    0.002    0.631    0.636
 dbcsr_make_dense_low             39447 12.8    0.195    0.206    0.296    0.630
 parser_read_line                156808  4.0    0.055    0.060    0.623    0.629
 tddfpt_apply_energy_diff             7  8.0    0.001    0.001    0.596    0.596
 prepare_dr1dr                      700 11.0    0.498    0.585    0.498    0.585
 hybrid_alltoall_any              18391 13.6    0.143    0.216    0.519    0.581
 parser_read_line_low               169  5.0    0.052    0.274    0.569    0.574
 arnoldi_extremal                   632  9.0    0.011    0.013    0.556    0.568
 arnoldi_normal_ev                  634 10.0    0.011    0.012    0.548    0.559
 make_images_data                 16936 12.8    0.162    0.214    0.351    0.554
 qs_ot_get_derivative_taylor         45 10.0    0.001    0.001    0.547    0.548
 pw_scale                          1124  9.5    0.444    0.533    0.444    0.533
 dbcsr_finalize                   17419 11.2    0.080    0.118    0.377    0.530
 broadcast_input_information        169  6.0    0.125    0.134    0.517    0.526
 tddfpt_compute_residual_vects        6  7.0    0.001    0.001    0.508    0.508
 mp_alltoall_z11v                  1123 13.4    0.445    0.488    0.445    0.488
 cp_fm_geeig                         20  7.0    0.001    0.001    0.452    0.453
 cp_fm_redistribute_start           549 11.7    0.350    0.360    0.437    0.445
 multiply_cannon_multrec         203232 12.8    0.254    0.394    0.289    0.433
 parallel_gemm_fm                  1200  8.3    0.001    0.002    0.412    0.429
 parallel_gemm_fm_gemm             1200  9.3    0.002    0.002    0.411    0.427
 cp_fm_gemm                        1200 10.3    0.409    0.425    0.409    0.425
 mp_irecv_dv                     455122 13.3    0.370    0.425    0.370    0.425
 dbcsr_special_finalize           42340 12.8    0.099    0.114    0.321    0.408
 ot_new_cg_direction                211  9.0    0.002    0.002    0.401    0.403
 apply_preconditioner_dbcsr         213 10.0    0.000    0.000    0.338    0.370
 apply_single                       213 11.0    0.000    0.000    0.338    0.370
 build_subspace                     634 11.0    0.019    0.021    0.357    0.369
 init_scf_run                         1  3.0    0.000    0.000    0.360    0.360
 scf_env_initial_rho_setup            1  4.0    0.000    0.000    0.359    0.359
 make_dense_data                  39447 13.8    0.015    0.151    0.016    0.334
 mp_isend_iv                     397988 13.8    0.301    0.327    0.301    0.327
 qs_init_subsys                       1  2.0    0.010    0.012    0.321    0.322
 xz_to_yz                           772 11.7    0.027    0.032    0.299    0.318
 dbcsr_iterator_start            128630 12.6    0.123    0.261    0.151    0.311
 dbcsr_matrix_vector_mult          3992 12.0    0.037    0.040    0.194    0.299
 dbcsr_merge_all                  15671 12.1    0.169    0.226    0.210    0.295
 dbcsr_destroy                   167437 11.5    0.203    0.210    0.271    0.284
 qs_env_setup                         1  3.0    0.000    0.000    0.271    0.279
 qs_env_rebuild_pw_env                2  3.5    0.000    0.000    0.270    0.278
 pw_env_rebuild                       1  5.0    0.001    0.001    0.269    0.277
 xc_2nd_deriv_of_r                  560 10.0    0.000    0.046    0.003    0.264
 mp_cart_create                    2999 10.5    0.241    0.258    0.245    0.264
 mp_bcast_i_src                     676  7.0    0.224    0.260    0.224    0.260
 pw_grid_setup                        4  6.0    0.000    0.000    0.235    0.243
 pw_grid_setup_internal               4  7.0    0.006    0.008    0.235    0.243
 mp_cart_sub                       2911 11.9    0.241    0.243    0.241    0.243
 dbcsr_data_new                  452842 13.0    0.184    0.240    0.184    0.240
 create_kernel_env                    1  6.0    0.000    0.000    0.203    0.232
 xc_prep_2nd_deriv                    1  7.0    0.000    0.000    0.203    0.231
 dbcsr_data_release              772476 13.2    0.195    0.231    0.195    0.231
 rs_grid_create                     776  9.3    0.004    0.005    0.030    0.228
 offload_create_buffer              778 10.3    0.026    0.225    0.026    0.225
 yz_to_xz                           351 14.0    0.020    0.022    0.193    0.224
 dbcsr_new_transposed              3928 10.7    0.022    0.023    0.217    0.224
 dbcsr_make_dense                  5812 11.1    0.024    0.025    0.124    0.217
 dbcsr_dot                         2105  8.7    0.013    0.048    0.173    0.213
 -------------------------------------------------------------------------------

 The number of warnings for this run is : 2
 
 -------------------------------------------------------------------------------
  **** **** ******  **  PROGRAM ENDED AT                 2025-04-28 06:38:24.186
 ***** ** ***  *** **   PROGRAM RAN ON                              i03r10c05s07
 **    ****   ******    PROGRAM RAN BY                                   di38fab
 ***** **    ** ** **   PROGRAM PROCESS ID                               2093110
  **** **  *******  **  PROGRAM STOPPED IN /hppfs/scratch/04/di38fab/07_MOL_non_
                                           aug/05_MOL_non_aug/05_MOL/W4-11+ALK/s
                                           io/QZVPP/TDDFT
