 DBCSR| CPU Multiplication driver                                           BLAS (U)
 DBCSR| Multrec recursion limit                                              512 (U)
 DBCSR| Multiplication stack size                                           1000 (D)
 DBCSR| Maximum elements for images                                    UNLIMITED (U)
 DBCSR| Multiplicative factor virtual images                                   1 (U)
 DBCSR| Use multiplication densification                                       T (D)
 DBCSR| Multiplication size stacks                                             3 (U)
 DBCSR| Use memory pool for CPU allocation                                     F (U)
 DBCSR| Number of 3D layers                                               SINGLE (U)
 DBCSR| Use MPI memory allocation                                              F (U)
 DBCSR| Use RMA algorithm                                                      F (U)
 DBCSR| Use Communication thread                                               T (U)
 DBCSR| Communication thread load                                             75 (D)
 DBCSR| MPI: My process id                                                     0
 DBCSR| MPI: Number of processes                                             216
 DBCSR| OMP: Current number of threads                                         4
 DBCSR| OMP: Max number of threads                                             4
 DBCSR| Split modifier for TAS multiplication algorithm                  1.0E+00 (U)


  **** **** ******  **  PROGRAM STARTED AT               2025-03-30 16:01:13.576
 ***** ** ***  *** **   PROGRAM STARTED ON                          i03r05c01s06
 **    ****   ******    PROGRAM STARTED BY                               di38fab
 ***** **    ** ** **   PROGRAM PROCESS ID                               1301141
  **** **  *******  **  PROGRAM STARTED IN /hppfs/scratch/04/di38fab/07_MOL_non_
                                           aug/05_MOL_non_aug/05_MOL/aUKBqsEOTmq
                                           69kFe5R_nOg/5k_set_final_qzvp/RACWIB/
                                           cc-pVDZ/GW+BSE

 CP2K| version string:                 CP2K version 2025.1 (Development Version)
 CP2K| source code revision number:                                  git:d2e611a
 CP2K| cp2kflags: omp libint fftw3 libxc parallel scalapack max_contr=4         
 CP2K| is freely available from                            https://www.cp2k.org/
 CP2K| Program compiled at                       Thu 06 Mar 2025 05:09:20 PM CET
 CP2K| Program compiled on                                               login02
 CP2K| Program compiled for                                        Supermuc-foss
 CP2K| Data directory path                  /hppfs/work/pn36zo/di38fab/cp2k/data
 CP2K| Input file name                                                    GW.inp

 GLOBAL| Force Environment number                                              1
 GLOBAL| Basis set file name            /hppfs/scratch/04/di38fab/04_TMD/BASIS_A
 GLOBAL| Potential file name            /hppfs/work/pn36zo/di38fab/cp2k/data/ALL
 GLOBAL| MM Potential file name                                     MM_POTENTIAL
 GLOBAL| Coordinate file name                                      __STD_INPUT__
 GLOBAL| Method name                                                        CP2K
 GLOBAL| Project name                                                       MoS2
 GLOBAL| Run type                                                         ENERGY
 GLOBAL| FFT library                                                       FFTW3
 GLOBAL| Diagonalization library                                       ScaLAPACK
 GLOBAL| DGEMM library                                                      BLAS
 GLOBAL| Orthonormality check for eigenvectors                          DISABLED
 GLOBAL| Matrix multiplication library                                 ScaLAPACK
 GLOBAL| All-to-all communication in single precision                          F
 GLOBAL| FFTs using library dependent lengths                                  F
 GLOBAL| Grid backend                                                       AUTO
 GLOBAL| Global print level                                               MEDIUM
 GLOBAL| MPI I/O enabled                                                       T
 GLOBAL| Total number of message passing processes                           216
 GLOBAL| Number of threads for this process                                    4
 GLOBAL| This output is from process                                           0
 GLOBAL| OpenMP stack size per thread (OMP_STACKSIZE)                    default
 GLOBAL| CPU model name             Intel(R) Xeon(R) Platinum 8174 CPU @ 3.10GHz

 MEMORY| system memory details [Kb]
 MEMORY|                        rank 0           min           max       average
 MEMORY| MemTotal             98436708      98436660      98436708      98436667
 MEMORY| MemFree              85555772      85484020      86183004      85660479
 MEMORY| Buffers                     0             0             0             0
 MEMORY| Cached                2286408       2241208       2286408       2277839
 MEMORY| Slab                   953200        839184        955068        926265
 MEMORY| SReclaimable           216364        161432        223440        204367
 MEMORY| MemLikelyFree        88058544      87972604      88589164      88142686


 *** Fundamental physical constants (SI units) ***

 *** Literature: B. J. Mohr and B. N. Taylor,
 ***             CODATA recommended values of the fundamental physical
 ***             constants: 2006, Web Version 5.1
 ***             http://physics.nist.gov/constants

 Speed of light in vacuum [m/s]                             2.99792458000000E+08
 Magnetic constant or permeability of vacuum [N/A**2]       1.25663706143592E-06
 Electric constant or permittivity of vacuum [F/m]          8.85418781762039E-12
 Planck constant (h) [J*s]                                  6.62606896000000E-34
 Planck constant (h-bar) [J*s]                              1.05457162825177E-34
 Elementary charge [C]                                      1.60217648700000E-19
 Electron mass [kg]                                         9.10938215000000E-31
 Electron g factor [ ]                                     -2.00231930436220E+00
 Proton mass [kg]                                           1.67262163700000E-27
 Fine-structure constant                                    7.29735253760000E-03
 Rydberg constant [1/m]                                     1.09737315685270E+07
 Avogadro constant [1/mol]                                  6.02214179000000E+23
 Boltzmann constant [J/K]                                   1.38065040000000E-23
 Atomic mass unit [kg]                                      1.66053878200000E-27
 Bohr radius [m]                                            5.29177208590000E-11

 *** Conversion factors ***

 [u] -> [a.u.]                                              1.82288848426455E+03
 [Angstrom] -> [Bohr] = [a.u.]                              1.88972613288564E+00
 [a.u.] = [Bohr] -> [Angstrom]                              5.29177208590000E-01
 [a.u.] -> [s]                                              2.41888432650478E-17
 [a.u.] -> [fs]                                             2.41888432650478E-02
 [a.u.] -> [J]                                              4.35974393937059E-18
 [a.u.] -> [N]                                              8.23872205491840E-08
 [a.u.] -> [K]                                              3.15774647902944E+05
 [a.u.] -> [kJ/mol]                                         2.62549961709828E+03
 [a.u.] -> [kcal/mol]                                       6.27509468713739E+02
 [a.u.] -> [Pa]                                             2.94210107994716E+13
 [a.u.] -> [bar]                                            2.94210107994716E+08
 [a.u.] -> [atm]                                            2.90362800883016E+08
 [a.u.] -> [eV]                                             2.72113838565563E+01
 [a.u.] -> [Hz]                                             6.57968392072181E+15
 [a.u.] -> [1/cm] (wave numbers)                            2.19474631370540E+05
 [a.u./Bohr**2] -> [1/cm]                                   5.14048714338585E+03
 

 CELL_TOP| Volume [angstrom^3]:                                     27000.000000
 CELL_TOP| Vector a [angstrom    30.000     0.000     0.000   |a| =    30.000000
 CELL_TOP| Vector b [angstrom     0.000    30.000     0.000   |b| =    30.000000
 CELL_TOP| Vector c [angstrom     0.000     0.000    30.000   |c| =    30.000000
 CELL_TOP| Angle (b,c), alpha [degree]:                                90.000000
 CELL_TOP| Angle (a,c), beta  [degree]:                                90.000000
 CELL_TOP| Angle (a,b), gamma [degree]:                                90.000000
 CELL_TOP| Numerically orthorhombic:                                         YES
 CELL_TOP| Periodicity                                                      NONE

 GENERATE|  Preliminary Number of Bonds generated:                             0
 GENERATE|  Achieved consistency in connectivity generation.

 CELL| Volume [angstrom^3]:                                         27000.000000
 CELL| Vector a [angstrom]:      30.000     0.000     0.000   |a| =    30.000000
 CELL| Vector b [angstrom]:       0.000    30.000     0.000   |b| =    30.000000
 CELL| Vector c [angstrom]:       0.000     0.000    30.000   |c| =    30.000000
 CELL| Angle (b,c), alpha [degree]:                                    90.000000
 CELL| Angle (a,c), beta  [degree]:                                    90.000000
 CELL| Angle (a,b), gamma [degree]:                                    90.000000
 CELL| Numerically orthorhombic:                                             YES
 CELL| Periodicity                                                          NONE

 CELL_REF| Volume [angstrom^3]:                                     27000.000000
 CELL_REF| Vector a [angstrom    30.000     0.000     0.000   |a| =    30.000000
 CELL_REF| Vector b [angstrom     0.000    30.000     0.000   |b| =    30.000000
 CELL_REF| Vector c [angstrom     0.000     0.000    30.000   |c| =    30.000000
 CELL_REF| Angle (b,c), alpha [degree]:                                90.000000
 CELL_REF| Angle (a,c), beta  [degree]:                                90.000000
 CELL_REF| Angle (a,b), gamma [degree]:                                90.000000
 CELL_REF| Numerically orthorhombic:                                         YES
 CELL_REF| Periodicity                                                      NONE

 *******************************************************************************
 *******************************************************************************
 **                                                                           **
 **     #####                         ##              ##                      **
 **    ##   ##            ##          ##              ##                      **
 **   ##     ##                       ##            ######                    **
 **   ##     ##  ##   ##  ##   #####  ##  ##   ####   ##    #####    #####    **
 **   ##     ##  ##   ##  ##  ##      ## ##   ##      ##   ##   ##  ##   ##   **
 **   ##  ## ##  ##   ##  ##  ##      ####     ###    ##   ######   ######    **
 **    ##  ###   ##   ##  ##  ##      ## ##      ##   ##   ##       ##        **
 **     #######   #####   ##   #####  ##  ##  ####    ##    #####   ##        **
 **           ##                                                    ##        **
 **                                                                           **
 **                                                ... make the atoms dance   **
 **                                                                           **
 **            Copyright (C) by CP2K developers group (2000-2025)             **
 **                      J. Chem. Phys. 152, 194103 (2020)                    **
 **                                                                           **
 *******************************************************************************

 DFT| Spin restricted Kohn-Sham (RKS) calculation                            RKS
 DFT| Multiplicity                                                             1
 DFT| Number of spin states                                                    1
 DFT| Charge                                                                   0
 DFT| Self-interaction correction (SIC)                                       NO
 DFT| Cutoffs: density                                              1.000000E-10
 DFT|          gradient                                             1.000000E-10
 DFT|          tau                                                  1.000000E-10
 DFT|          cutoff_smoothing_range                               0.000000E+00
 DFT| XC density smoothing                                                  NONE
 DFT| XC derivatives                                                          PW

 FUNCTIONAL| PBE:
 FUNCTIONAL| J.P.Perdew, K.Burke, M.Ernzerhof, Phys. Rev. Letter, vol. 77, n 18,
 FUNCTIONAL|  pp. 3865-3868, (1996)sx=0.750sc=1.000{spin unpolarized}           


 QS| Method:                                                                GAPW
 QS| Density plane wave grid type                        NON-SPHERICAL FULLSPACE
 QS| Number of grid levels:                                                    4
 QS| Density cutoff [a.u.]:                                                250.0
 QS| Multi grid cutoff [a.u.]: 1) grid level                               250.0
 QS|                           2) grid level                                83.3
 QS|                           3) grid level                                27.8
 QS|                           4) grid level                                 9.3
 QS| Grid level progression factor:                                          3.0
 QS| Relative density cutoff [a.u.]:                                        50.0
 QS| Interaction thresholds: eps_pgf_orb:                                1.0E-12
 QS|                         eps_filter_matrix:                          0.0E+00
 QS|                         eps_core_charge:                            1.0E-14
 QS|                         eps_rho_gspace:                             1.0E-12
 QS|                         eps_rho_rspace:                             1.0E-12
 QS|                         eps_gvg_rspace:                             1.0E-06
 QS|                         eps_ppl:                                    1.0E-02
 QS|                         eps_ppnl:                                   1.0E-08
 QS| GAPW|      One center basis from orbital basis primitives
 QS| GAPW|                   eps_fit:                                    1.0E-04
 QS| GAPW|                   eps_iso:                                    1.0E-12
 QS| GAPW|                   eps_svd:                                    1.0E-08
 QS| GAPW|                   eps_cpc:                                    1.0E-12
 QS| GAPW|   atom-r-grid: quadrature:                                     GC_LOG
 QS| GAPW|      atom-s-grid:  max l :                                          4
 QS| GAPW|      max_l_rho0 :                                                   2


 ATOMIC KIND INFORMATION

  1. Atomic kind: H                                     Number of atoms:       1

     Orbital Basis Set                                                   cc-pVDZ

       Number of orbital shell sets:                                           2
       Number of orbital shells:                                               3
       Number of primitive Cartesian functions:                                5
       Number of Cartesian basis functions:                                    5
       Number of spherical basis functions:                                    5
       Norm type:                                                              2

       Normalised Cartesian orbitals:

                        Set   Shell   Orbital            Exponent    Coefficient

                          1       1    1s               13.010000       0.096107
                                                         1.962000       0.163020
                                                         0.444600       0.185545
                                                         0.122000       0.073744

                          1       2    2s               13.010000       0.000000
                                                         1.962000       0.000000
                                                         0.444600       0.000000
                                                         0.122000       0.147123

                          2       1    1px               0.727000       0.956881
                          2       1    1py               0.727000       0.956881
                          2       1    1pz               0.727000       0.956881

     RI Auxiliary Basis Set                                        cc-pVDZ-RIFIT

       Number of orbital shell sets:                                           6
       Number of orbital shells:                                               6
       Number of primitive Cartesian functions:                                6
       Number of Cartesian basis functions:                                   15
       Number of spherical basis functions:                                   14
       Norm type:                                                              2

       Normalised Cartesian orbitals:

                        Set   Shell   Orbital            Exponent    Coefficient

                          1       1    1s                0.291662       0.282859

                          2       1    1px               0.986401       1.401222
                          2       1    1py               0.986401       1.401222
                          2       1    1pz               0.986401       1.401222

                          3       1    1s                1.142965       0.787834

                          4       1    1dx2              1.172083       2.173136
                          4       1    1dxy              1.172083       3.763982
                          4       1    1dxz              1.172083       3.763982
                          4       1    1dy2              1.172083       2.173136
                          4       1    1dyz              1.172083       3.763982
                          4       1    1dz2              1.172083       2.173136

                          5       1    1px               1.914964       3.211004
                          5       1    1py               1.914964       3.211004
                          5       1    1pz               1.914964       3.211004

                          6       1    1s                5.115890       2.424381

       Atomic covalent radius [Angstrom]:                                  0.320

       Atomic van der Waals radius [Angstrom]:                             1.090

     The atoms of this atomic kind are PAW atoms (GAPW):
       Hard Gaussian function radius:                                      1.200
       Rho0 radius:                                                        1.200
       Maximum GTO radius used for PAW projector construction:            24.566

     GAPW Soft Basis Set                                            cc-pVDZ_soft

       Number of orbital shell sets:                                           2
       Number of orbital shells:                                               3
       Number of primitive Cartesian functions:                                4
       Number of Cartesian basis functions:                                    5
       Number of spherical basis functions:                                    5
       Norm type:                                                              2

       Normalised Cartesian orbitals:

                        Set   Shell   Orbital            Exponent    Coefficient

                          1       1    1s                1.962000       0.163020
                                                         0.444600       0.185545
                                                         0.122000       0.073744

                          1       2    2s                1.962000       0.000000
                                                         0.444600       0.000000
                                                         0.122000       0.147123

                          2       1    1px               0.727000       0.956881
                          2       1    1py               0.727000       0.956881
                          2       1    1pz               0.727000       0.956881

     AE Potential information for                                            ALL

       Description:                                       All-electron potential
                                          Krack, Parrinello, PCCP 2, 2105 (2000)

       Gaussian exponent of the core charge distribution:              12.500000
       Electronic configuration (s p d ...):                           1   0   0

  2. Atomic kind: N                                     Number of atoms:       1

     Orbital Basis Set                                                   cc-pVDZ

       Number of orbital shell sets:                                           3
       Number of orbital shells:                                               6
       Number of primitive Cartesian functions:                               14
       Number of Cartesian basis functions:                                   15
       Number of spherical basis functions:                                   14
       Norm type:                                                              2

       Normalised Cartesian orbitals:

                        Set   Shell   Orbital            Exponent    Coefficient

                          1       1    1px              13.550000       1.479258
                                                         2.917000       1.180072
                                                         0.797300       0.548036
                                                         0.218500       0.098423
                          1       1    1py              13.550000       1.479258
                                                         2.917000       1.180072
                                                         0.797300       0.548036
                                                         0.218500       0.098423
                          1       1    1pz              13.550000       1.479258
                                                         2.917000       1.180072
                                                         0.797300       0.548036
                                                         0.218500       0.098423

                          1       2    2px              13.550000       0.000000
                                                         2.917000       0.000000
                                                         0.797300       0.000000
                                                         0.218500       0.212939
                          1       2    2py              13.550000       0.000000
                                                         2.917000       0.000000
                                                         0.797300       0.000000
                                                         0.218500       0.212939
                          1       2    2pz              13.550000       0.000000
                                                         2.917000       0.000000
                                                         0.797300       0.000000
                                                         0.218500       0.212939

                          2       1    1s             9046.000000       0.462754
                                                      1357.000000       0.858723
                                                       309.300000       1.440591
                                                        87.730000       2.108533
                                                        28.560000       2.454153
                                                        10.210000       1.825915
                                                         3.838000       0.543758
                                                         0.746600       0.008838
                                                         0.224800      -0.000666

                          2       2    2s             9046.000000      -0.101145
                                                      1357.000000      -0.192492
                                                       309.300000      -0.314968
                                                        87.730000      -0.501437
                                                        28.560000      -0.593976
                                                        10.210000      -0.643503
                                                         3.838000      -0.238093
                                                         0.746600       0.314268
                                                         0.224800       0.134678

                          2       3    3s             9046.000000       0.000000
                                                      1357.000000       0.000000
                                                       309.300000       0.000000
                                                        87.730000       0.000000
                                                        28.560000       0.000000
                                                        10.210000       0.000000
                                                         3.838000       0.000000
                                                         0.746600       0.000000
                                                         0.224800       0.232679

                          3       1    1dx2              0.817000       1.155575
                          3       1    1dxy              0.817000       2.001514
                          3       1    1dxz              0.817000       2.001514
                          3       1    1dy2              0.817000       1.155575
                          3       1    1dyz              0.817000       2.001514
                          3       1    1dz2              0.817000       1.155575

     RI Auxiliary Basis Set                                        cc-pVDZ-RIFIT

       Number of orbital shell sets:                                          18
       Number of orbital shells:                                              18
       Number of primitive Cartesian functions:                               18
       Number of Cartesian basis functions:                                   66
       Number of spherical basis functions:                                   56
       Norm type:                                                              2

       Normalised Cartesian orbitals:

                        Set   Shell   Orbital            Exponent    Coefficient

                          1       1    1s                0.327261       0.308376

                          2       1    1px               0.461104       0.541613
                          2       1    1py               0.461104       0.541613
                          2       1    1pz               0.461104       0.541613

                          3       1    1dx2              0.477850       0.452033
                          3       1    1dxy              0.477850       0.782943
                          3       1    1dxz              0.477850       0.782943
                          3       1    1dy2              0.477850       0.452033
                          3       1    1dyz              0.477850       0.782943
                          3       1    1dz2              0.477850       0.452033

                          4       1    1s                0.723539       0.559122

                          5       1    1px               1.094610       1.595932
                          5       1    1py               1.094610       1.595932
                          5       1    1pz               1.094610       1.595932

                          6       1    1s                1.123240       0.777615

                          7       1    1dx2              1.285370       2.553929
                          7       1    1dxy              1.285370       4.423534
                          7       1    1dxz              1.285370       4.423534
                          7       1    1dy2              1.285370       2.553929
                          7       1    1dyz              1.285370       4.423534
                          7       1    1dz2              1.285370       2.553929

                          8       1    1fx3              1.334730       2.818965
                          8       1    1fx2y             1.334730       6.303397
                          8       1    1fx2z             1.334730       6.303397
                          8       1    1fxy2             1.334730       6.303397
                          8       1    1fxyz             1.334730      10.917804
                          8       1    1fxz2             1.334730       6.303397
                          8       1    1fy3              1.334730       2.818965
                          8       1    1fy2z             1.334730       6.303397
                          8       1    1fyz2             1.334730       6.303397
                          8       1    1fz3              1.334730       2.818965

                          9       1    1s                2.344260       1.350251

                         10       1    1px               2.533640       4.556393
                         10       1    1py               2.533640       4.556393
                         10       1    1pz               2.533640       4.556393

                         11       1    1fx3              3.401180      23.127095
                         11       1    1fx2y             3.401180      51.713757
                         11       1    1fx2z             3.401180      51.713757
                         11       1    1fxy2             3.401180      51.713757
                         11       1    1fxyz             3.401180      89.570854
                         11       1    1fxz2             3.401180      51.713757
                         11       1    1fy3              3.401180      23.127095
                         11       1    1fy2z             3.401180      51.713757
                         11       1    1fyz2             3.401180      51.713757
                         11       1    1fz3              3.401180      23.127095

                         12       1    1dx2              3.428160      14.215638
                         12       1    1dxy              3.428160      24.622207
                         12       1    1dxz              3.428160      24.622207
                         12       1    1dy2              3.428160      14.215638
                         12       1    1dyz              3.428160      24.622207
                         12       1    1dz2              3.428160      14.215638

                         13       1    1s                7.624360       3.270112

                         14       1    1px               8.552990      20.849111
                         14       1    1py               8.552990      20.849111
                         14       1    1pz               8.552990      20.849111

                         15       1    1dx2             12.327800     133.493224
                         15       1    1dxy             12.327800     231.217046
                         15       1    1dxz             12.327800     231.217046
                         15       1    1dy2             12.327800     133.493224
                         15       1    1dyz             12.327800     231.217046
                         15       1    1dz2             12.327800     133.493224

                         16       1    1s               20.467900       6.858278

                         17       1    1px              29.237300      96.908455
                         17       1    1py              29.237300      96.908455
                         17       1    1pz              29.237300      96.908455

                         18       1    1s               87.686400      20.422517

       Atomic covalent radius [Angstrom]:                                  0.750

       Atomic van der Waals radius [Angstrom]:                             1.550

     The atoms of this atomic kind are PAW atoms (GAPW):
       Hard Gaussian function radius:                                      1.512
       Rho0 radius:                                                        1.512
       Maximum GTO radius used for PAW projector construction:            24.566

     GAPW Soft Basis Set                                            cc-pVDZ_soft

       Number of orbital shell sets:                                           3
       Number of orbital shells:                                               6
       Number of primitive Cartesian functions:                                7
       Number of Cartesian basis functions:                                   15
       Number of spherical basis functions:                                   14
       Norm type:                                                              2

       Normalised Cartesian orbitals:

                        Set   Shell   Orbital            Exponent    Coefficient

                          1       1    1px               2.917000       1.180072
                                                         0.797300       0.548036
                                                         0.218500       0.098423
                          1       1    1py               2.917000       1.180072
                                                         0.797300       0.548036
                                                         0.218500       0.098423
                          1       1    1pz               2.917000       1.180072
                                                         0.797300       0.548036
                                                         0.218500       0.098423

                          1       2    2px               2.917000       0.000000
                                                         0.797300       0.000000
                                                         0.218500       0.212939
                          1       2    2py               2.917000       0.000000
                                                         0.797300       0.000000
                                                         0.218500       0.212939
                          1       2    2pz               2.917000       0.000000
                                                         0.797300       0.000000
                                                         0.218500       0.212939

                          2       1    1s                3.838000       0.543758
                                                         0.746600       0.008838
                                                         0.224800      -0.000666

                          2       2    2s                3.838000      -0.238093
                                                         0.746600       0.314268
                                                         0.224800       0.134678

                          2       3    3s                3.838000       0.000000
                                                         0.746600       0.000000
                                                         0.224800       0.232679

                          3       1    1dx2              0.817000       1.155575
                          3       1    1dxy              0.817000       2.001514
                          3       1    1dxz              0.817000       2.001514
                          3       1    1dy2              0.817000       1.155575
                          3       1    1dyz              0.817000       2.001514
                          3       1    1dz2              0.817000       1.155575

     AE Potential information for                                            ALL

       Description:                                       All-electron potential
                                          Krack, Parrinello, PCCP 2, 2105 (2000)

       Gaussian exponent of the core charge distribution:               5.979100
       Electronic configuration (s p d ...):                           4   3   0

  3. Atomic kind: S                                     Number of atoms:       8

     Orbital Basis Set                                                   cc-pVDZ

       Number of orbital shell sets:                                           3
       Number of orbital shells:                                               8
       Number of primitive Cartesian functions:                               21
       Number of Cartesian basis functions:                                   19
       Number of spherical basis functions:                                   18
       Norm type:                                                              2

       Normalised Cartesian orbitals:

                        Set   Shell   Orbital            Exponent    Coefficient

                          1       1    1px             399.700000      11.400936
                                                        94.190000      14.292268
                                                        29.750000      14.286128
                                                        10.770000       9.842934
                                                         4.119000       3.839926
                                                         1.625000       0.539735
                                                         0.472600       0.005705
                                                         0.140700      -0.000007
                          1       1    1py             399.700000      11.400936
                                                        94.190000      14.292268
                                                        29.750000      14.286128
                                                        10.770000       9.842934
                                                         4.119000       3.839926
                                                         1.625000       0.539735
                                                         0.472600       0.005705
                                                         0.140700      -0.000007
                          1       1    1pz             399.700000      11.400936
                                                        94.190000      14.292268
                                                        29.750000      14.286128
                                                        10.770000       9.842934
                                                         4.119000       3.839926
                                                         1.625000       0.539735
                                                         0.472600       0.005705
                                                         0.140700      -0.000007

                          1       2    2px             399.700000      -2.961452
                                                        94.190000      -3.620726
                                                        29.750000      -3.871231
                                                        10.770000      -2.599246
                                                         4.119000      -1.237867
                                                         1.625000       0.078954
                                                         0.472600       0.313663
                                                         0.140700       0.065687
                          1       2    2py             399.700000      -2.961452
                                                        94.190000      -3.620726
                                                        29.750000      -3.871231
                                                        10.770000      -2.599246
                                                         4.119000      -1.237867
                                                         1.625000       0.078954
                                                         0.472600       0.313663
                                                         0.140700       0.065687
                          1       2    2pz             399.700000      -2.961452
                                                        94.190000      -3.620726
                                                        29.750000      -3.871231
                                                        10.770000      -2.599246
                                                         4.119000      -1.237867
                                                         1.625000       0.078954
                                                         0.472600       0.313663
                                                         0.140700       0.065687

                          1       3    3px             399.700000       0.000000
                                                        94.190000       0.000000
                                                        29.750000       0.000000
                                                        10.770000       0.000000
                                                         4.119000       0.000000
                                                         1.625000       0.000000
                                                         0.472600       0.000000
                                                         0.140700       0.122831
                          1       3    3py             399.700000       0.000000
                                                        94.190000       0.000000
                                                        29.750000       0.000000
                                                        10.770000       0.000000
                                                         4.119000       0.000000
                                                         1.625000       0.000000
                                                         0.472600       0.000000
                                                         0.140700       0.122831
                          1       3    3pz             399.700000       0.000000
                                                        94.190000       0.000000
                                                        29.750000       0.000000
                                                        10.770000       0.000000
                                                         4.119000       0.000000
                                                         1.625000       0.000000
                                                         0.472600       0.000000
                                                         0.140700       0.122831

                          2       1    1s           110800.000000       1.071832
                                                     16610.000000       2.002384
                                                      3781.000000       3.423404
                                                      1071.000000       5.376879
                                                       349.800000       7.413604
                                                       126.300000       8.148781
                                                        49.260000       5.584810
                                                        20.160000       1.564869
                                                         5.720000       0.047178
                                                         2.182000      -0.003807
                                                         0.432700       0.000323
                                                         0.157000      -0.000065

                          2       2    2s           110800.000000      -0.297369
                                                     16610.000000      -0.550248
                                                      3781.000000      -0.961087
                                                      1071.000000      -1.503098
                                                       349.800000      -2.241502
                                                       126.300000      -2.671755
                                                        49.260000      -2.646951
                                                        20.160000      -0.836474
                                                         5.720000       1.352816
                                                         2.182000       0.776829
                                                         0.432700       0.015086
                                                         0.157000      -0.001683

                          2       3    3s           110800.000000       0.086166
                                                     16610.000000       0.160047
                                                      3781.000000       0.278185
                                                      1071.000000       0.438949
                                                       349.800000       0.651218
                                                       126.300000       0.795827
                                                        49.260000       0.794922
                                                        20.160000       0.280213
                                                         5.720000      -0.546916
                                                         2.182000      -0.502714
                                                         0.432700       0.240627
                                                         0.157000       0.098999

                          2       4    4s           110800.000000       0.000000
                                                     16610.000000       0.000000
                                                      3781.000000       0.000000
                                                      1071.000000       0.000000
                                                       349.800000       0.000000
                                                       126.300000       0.000000
                                                        49.260000       0.000000
                                                        20.160000       0.000000
                                                         5.720000       0.000000
                                                         2.182000       0.000000
                                                         0.432700       0.000000
                                                         0.157000       0.177760

                          3       1    1dx2              0.479000       0.453938
                          3       1    1dxy              0.479000       0.786244
                          3       1    1dxz              0.479000       0.786244
                          3       1    1dy2              0.479000       0.453938
                          3       1    1dyz              0.479000       0.786244
                          3       1    1dz2              0.479000       0.453938

     RI Auxiliary Basis Set                                        cc-pVDZ-RIFIT

       Number of orbital shell sets:                                          24
       Number of orbital shells:                                              24
       Number of primitive Cartesian functions:                               24
       Number of Cartesian basis functions:                                   90
       Number of spherical basis functions:                                   76
       Norm type:                                                              2

       Normalised Cartesian orbitals:

                        Set   Shell   Orbital            Exponent    Coefficient

                          1       1    1s                0.167641       0.186722

                          2       1    1px               0.294775       0.309601
                          2       1    1py               0.294775       0.309601
                          2       1    1pz               0.294775       0.309601

                          3       1    1dx2              0.327310       0.233124
                          3       1    1dxy              0.327310       0.403783
                          3       1    1dxz              0.327310       0.403783
                          3       1    1dy2              0.327310       0.233124
                          3       1    1dyz              0.327310       0.403783
                          3       1    1dz2              0.327310       0.233124

                          4       1    1s                0.392266       0.353261

                          5       1    1px               0.706807       0.923774
                          5       1    1py               0.706807       0.923774
                          5       1    1pz               0.706807       0.923774

                          6       1    1s                0.719901       0.557012

                          7       1    1fx3              0.804154       0.901505
                          7       1    1fx2y             0.804154       2.015826
                          7       1    1fx2z             0.804154       2.015826
                          7       1    1fxy2             0.804154       2.015826
                          7       1    1fxyz             0.804154       3.491513
                          7       1    1fxz2             0.804154       2.015826
                          7       1    1fy3              0.804154       0.901505
                          7       1    1fy2z             0.804154       2.015826
                          7       1    1fyz2             0.804154       2.015826
                          7       1    1fz3              0.804154       0.901505

                          8       1    1dx2              0.842734       1.220023
                          8       1    1dxy              0.842734       2.113142
                          8       1    1dxz              0.842734       2.113142
                          8       1    1dy2              0.842734       1.220023
                          8       1    1dyz              0.842734       2.113142
                          8       1    1dz2              0.842734       1.220023

                          9       1    1px               1.129998       1.660684
                          9       1    1py               1.129998       1.660684
                          9       1    1pz               1.129998       1.660684

                         10       1    1s                1.198004       0.816120

                         11       1    1px               2.705832       4.946706
                         11       1    1py               2.705832       4.946706
                         11       1    1pz               2.705832       4.946706

                         12       1    1dx2              3.396356      13.985644
                         12       1    1dxy              3.396356      24.223846
                         12       1    1dxz              3.396356      24.223846
                         12       1    1dy2              3.396356      13.985644
                         12       1    1dyz              3.396356      24.223846
                         12       1    1dz2              3.396356      13.985644

                         13       1    1s                3.636248       1.876723

                         14       1    1fx3              3.748866      28.789173
                         14       1    1fx2y             3.748866      64.374548
                         14       1    1fx2z             3.748866      64.374548
                         14       1    1fxy2             3.748866      64.374548
                         14       1    1fxyz             3.748866     111.499987
                         14       1    1fxz2             3.748866      64.374548
                         14       1    1fy3              3.748866      28.789173
                         14       1    1fy2z             3.748866      64.374548
                         14       1    1fyz2             3.748866      64.374548
                         14       1    1fz3              3.748866      28.789173

                         15       1    1dx2              6.331105      41.590926
                         15       1    1dxy              6.331105      72.037597
                         15       1    1dxz              6.331105      72.037597
                         15       1    1dy2              6.331105      41.590926
                         15       1    1dyz              6.331105      72.037597
                         15       1    1dz2              6.331105      41.590926

                         16       1    1px               6.817352      15.702173
                         16       1    1py               6.817352      15.702173
                         16       1    1pz               6.817352      15.702173

                         17       1    1s                7.500706       3.230254

                         18       1    1fx3              9.005280     206.810777
                         18       1    1fx2y             9.005280     462.442956
                         18       1    1fx2z             9.005280     462.442956
                         18       1    1fxy2             9.005280     462.442956
                         18       1    1fxyz             9.005280     800.974696
                         18       1    1fxz2             9.005280     462.442956
                         18       1    1fy3              9.005280     206.810777
                         18       1    1fy2z             9.005280     462.442956
                         18       1    1fyz2             9.005280     462.442956
                         18       1    1fz3              9.005280     206.810777

                         19       1    1px              15.326807      43.226960
                         19       1    1py              15.326807      43.226960
                         19       1    1pz              15.326807      43.226960

                         20       1    1s               15.451154       5.554318

                         21       1    1dx2             26.396606     505.962818
                         21       1    1dxy             26.396606     876.353307
                         21       1    1dxz             26.396606     876.353307
                         21       1    1dy2             26.396606     505.962818
                         21       1    1dyz             26.396606     876.353307
                         21       1    1dz2             26.396606     505.962818

                         22       1    1s               54.508181      14.297377

                         23       1    1px             100.479539     453.458063
                         23       1    1py             100.479539     453.458063
                         23       1    1pz             100.479539     453.458063

                         24       1    1s              227.606460      41.763658

       Atomic covalent radius [Angstrom]:                                  1.020

       Atomic van der Waals radius [Angstrom]:                             1.800

     The atoms of this atomic kind are PAW atoms (GAPW):
       Hard Gaussian function radius:                                      1.512
       Rho0 radius:                                                        1.512
       Maximum GTO radius used for PAW projector construction:            24.566

     GAPW Soft Basis Set                                            cc-pVDZ_soft

       Number of orbital shell sets:                                           3
       Number of orbital shells:                                               8
       Number of primitive Cartesian functions:                                8
       Number of Cartesian basis functions:                                   19
       Number of spherical basis functions:                                   18
       Norm type:                                                              2

       Normalised Cartesian orbitals:

                        Set   Shell   Orbital            Exponent    Coefficient

                          1       1    1px               4.119000       3.839926
                                                         1.625000       0.539735
                                                         0.472600       0.005705
                                                         0.140700      -0.000007
                          1       1    1py               4.119000       3.839926
                                                         1.625000       0.539735
                                                         0.472600       0.005705
                                                         0.140700      -0.000007
                          1       1    1pz               4.119000       3.839926
                                                         1.625000       0.539735
                                                         0.472600       0.005705
                                                         0.140700      -0.000007

                          1       2    2px               4.119000      -1.237867
                                                         1.625000       0.078954
                                                         0.472600       0.313663
                                                         0.140700       0.065687
                          1       2    2py               4.119000      -1.237867
                                                         1.625000       0.078954
                                                         0.472600       0.313663
                                                         0.140700       0.065687
                          1       2    2pz               4.119000      -1.237867
                                                         1.625000       0.078954
                                                         0.472600       0.313663
                                                         0.140700       0.065687

                          1       3    3px               4.119000       0.000000
                                                         1.625000       0.000000
                                                         0.472600       0.000000
                                                         0.140700       0.122831
                          1       3    3py               4.119000       0.000000
                                                         1.625000       0.000000
                                                         0.472600       0.000000
                                                         0.140700       0.122831
                          1       3    3pz               4.119000       0.000000
                                                         1.625000       0.000000
                                                         0.472600       0.000000
                                                         0.140700       0.122831

                          2       1    1s                2.182000      -0.003807
                                                         0.432700       0.000323
                                                         0.157000      -0.000065

                          2       2    2s                2.182000       0.776829
                                                         0.432700       0.015086
                                                         0.157000      -0.001683

                          2       3    3s                2.182000      -0.502714
                                                         0.432700       0.240627
                                                         0.157000       0.098999

                          2       4    4s                2.182000       0.000000
                                                         0.432700       0.000000
                                                         0.157000       0.177760

                          3       1    1dx2              0.479000       0.453938
                          3       1    1dxy              0.479000       0.786244
                          3       1    1dxz              0.479000       0.786244
                          3       1    1dy2              0.479000       0.453938
                          3       1    1dyz              0.479000       0.786244
                          3       1    1dz2              0.479000       0.453938

     AE Potential information for                                            ALL

       Description:                                       All-electron potential
                                          Krack, Parrinello, PCCP 2, 2105 (2000)

       Gaussian exponent of the core charge distribution:               2.834467
       Electronic configuration (s p d ...):                           6  10   0


 MOLECULE KIND INFORMATION


 All atoms are their own molecule, skipping detailed information


 TOTAL NUMBERS AND MAXIMUM NUMBERS

  Total number of            - Atomic kinds:                                   3
                             - Atoms:                                         10
                             - Shell sets:                                    29
                             - Shells:                                        73
                             - Primitive Cartesian functions:                187
                             - Cartesian basis functions:                    172
                             - Spherical basis functions:                    163

  Maximum angular momentum of the orbital basis functions:                     2


 MODULE QUICKSTEP: ATOMIC COORDINATES IN ANGSTROM

   Atom Kind Element         X             Y             Z       Z(eff)     Mass
      1    1 H     1     15.613026     15.474934     13.533223   1.0000   1.0079
      2    2 N     7     16.136899     16.160229     14.080300   7.0000  14.0067
      3    3 S    16     14.140321     12.604440     16.032037  16.0000  32.0650
      4    3 S    16     13.253238     13.813750     14.576834  16.0000  32.0650
      5    3 S    16     12.485653     15.497985     15.517182  16.0000  32.0650
      6    3 S    16     14.070618     16.610641     16.266830  16.0000  32.0650
      7    3 S    16     15.149783     17.406311     14.693306  16.0000  32.0650
      8    3 S    16     17.514347     15.497628     14.817954  16.0000  32.0650
      9    3 S    16     16.987164     14.357112     16.466777  16.0000  32.0650
     10    3 S    16     16.176921     12.593689     15.702900  16.0000  32.0650



 SCF PARAMETERS         Density guess:                                    ATOMIC
                        --------------------------------------------------------
                        max_scf:                                             500
                        max_scf_history:                                       0
                        max_diis:                                              4
                        --------------------------------------------------------
                        eps_scf:                                        1.00E-06
                        eps_scf_history:                                0.00E+00
                        eps_diis:                                       1.00E-01
                        eps_eigval:                                     1.00E-05
                        --------------------------------------------------------
                        level_shift [a.u.]:                             0.000000
                        added MOs                                        95    0
                        --------------------------------------------------------
                        Mixing method:                            BROYDEN_MIXING
                                                charge density mixing in g-space
                        --------------------------------------------------------
                        No outer SCF

 PW_GRID| Information for grid number                                          1
 PW_GRID| Grid distributed over                                   216 processors
 PW_GRID| Real space group dimensions                                   216    1
 PW_GRID| the grid is blocked:                                                NO
 PW_GRID| Cutoff [a.u.]                                                    250.0
 PW_GRID| spherical cutoff:                                                   NO
 PW_GRID|   Bounds   1           -202     202                Points:         405
 PW_GRID|   Bounds   2           -202     202                Points:         405
 PW_GRID|   Bounds   3           -202     202                Points:         405
 PW_GRID| Volume element (a.u.^3)  0.2743E-02     Volume (a.u.^3)    182205.0337
 PW_GRID| Grid span                                                    FULLSPACE
 PW_GRID|   Distribution                         Average         Max         Min
 PW_GRID|   G-Vectors                           307546.9      307800      307395
 PW_GRID|   G-Rays                                 759.4         760         759
 PW_GRID|   Real Space Points                   307546.9      328050      164025

 PW_GRID| Information for grid number                                          2
 PW_GRID| Number of the reference grid                                         1
 PW_GRID| Grid distributed over                                   216 processors
 PW_GRID| Real space group dimensions                                   216    1
 PW_GRID| the grid is blocked:                                                NO
 PW_GRID| Cutoff [a.u.]                                                     83.3
 PW_GRID| spherical cutoff:                                                   NO
 PW_GRID|   Bounds   1           -120     119                Points:         240
 PW_GRID|   Bounds   2           -120     119                Points:         240
 PW_GRID|   Bounds   3           -120     119                Points:         240
 PW_GRID| Volume element (a.u.^3)  0.1318E-01     Volume (a.u.^3)    182205.0337
 PW_GRID| Grid span                                                    FULLSPACE
 PW_GRID|   Distribution                         Average         Max         Min
 PW_GRID|   G-Vectors                            64000.0       64560       63360
 PW_GRID|   G-Rays                                 266.7         269         264
 PW_GRID|   Real Space Points                    64000.0      115200       57600

 PW_GRID| Information for grid number                                          3
 PW_GRID| Number of the reference grid                                         1
 PW_GRID| Grid distributed over                                   216 processors
 PW_GRID| Real space group dimensions                                    12   18
 PW_GRID| the grid is blocked:                                                NO
 PW_GRID| Cutoff [a.u.]                                                     27.8
 PW_GRID| spherical cutoff:                                                   NO
 PW_GRID|   Bounds   1            -67      67                Points:         135
 PW_GRID|   Bounds   2            -67      67                Points:         135
 PW_GRID|   Bounds   3            -67      67                Points:         135
 PW_GRID| Volume element (a.u.^3)  0.7406E-01     Volume (a.u.^3)    182205.0337
 PW_GRID| Grid span                                                    FULLSPACE
 PW_GRID|   Distribution                         Average         Max         Min
 PW_GRID|   G-Vectors                            11390.6       11610       11205
 PW_GRID|   G-Rays                                  84.4          86          83
 PW_GRID|   Real Space Points                    11390.6       12960       10395

 PW_GRID| Information for grid number                                          4
 PW_GRID| Number of the reference grid                                         1
 PW_GRID| Grid distributed over                                   216 processors
 PW_GRID| Real space group dimensions                                    12   18
 PW_GRID| the grid is blocked:                                                NO
 PW_GRID| Cutoff [a.u.]                                                      9.3
 PW_GRID| spherical cutoff:                                                   NO
 PW_GRID|   Bounds   1            -40      39                Points:          80
 PW_GRID|   Bounds   2            -40      39                Points:          80
 PW_GRID|   Bounds   3            -40      39                Points:          80
 PW_GRID| Volume element (a.u.^3)  0.3559         Volume (a.u.^3)    182205.0337
 PW_GRID| Grid span                                                    FULLSPACE
 PW_GRID|   Distribution                         Average         Max         Min
 PW_GRID|   G-Vectors                             2370.4        2480        2240
 PW_GRID|   G-Rays                                  29.6          31          28
 PW_GRID|   Real Space Points                     2370.4        2800        1920

 POISSON| Solver                                                         WAVELET
 POISSON| Wavelet| Scaling function                                           40
 POISSON| Periodicity                                                       NONE

 RS_GRID| Information for grid number                                          1
 RS_GRID|   Bounds   1           -202     202                Points:         405
 RS_GRID|   Bounds   2           -202     202                Points:         405
 RS_GRID|   Bounds   3           -202     202                Points:         405
 RS_GRID| Real space distribution over                                  6 groups
 RS_GRID| Real space distribution along direction                              1
 RS_GRID| Border size                                                         33
 RS_GRID| Real space distribution over                                  6 groups
 RS_GRID| Real space distribution along direction                              2
 RS_GRID| Border size                                                         33
 RS_GRID| Real space distribution over                                  6 groups
 RS_GRID| Real space distribution along direction                              3
 RS_GRID| Border size                                                         33
 RS_GRID|   Distribution                         Average         Max         Min
 RS_GRID|   Planes                                 133.5         134         133
 RS_GRID|   Distribution                         Average         Max         Min
 RS_GRID|   Planes                                 133.5         134         133
 RS_GRID|   Distribution                         Average         Max         Min
 RS_GRID|   Planes                                 133.5         134         133

 RS_GRID| Information for grid number                                          2
 RS_GRID|   Bounds   1           -120     119                Points:         240
 RS_GRID|   Bounds   2           -120     119                Points:         240
 RS_GRID|   Bounds   3           -120     119                Points:         240
 RS_GRID| Real space distribution over                                  6 groups
 RS_GRID| Real space distribution along direction                              1
 RS_GRID| Border size                                                         34
 RS_GRID| Real space distribution over                                  6 groups
 RS_GRID| Real space distribution along direction                              2
 RS_GRID| Border size                                                         34
 RS_GRID| Real space distribution over                                  6 groups
 RS_GRID| Real space distribution along direction                              3
 RS_GRID| Border size                                                         34
 RS_GRID|   Distribution                         Average         Max         Min
 RS_GRID|   Planes                                 108.0         108         108
 RS_GRID|   Distribution                         Average         Max         Min
 RS_GRID|   Planes                                 108.0         108         108
 RS_GRID|   Distribution                         Average         Max         Min
 RS_GRID|   Planes                                 108.0         108         108

 RS_GRID| Information for grid number                                          3
 RS_GRID|   Bounds   1            -67      67                Points:         135
 RS_GRID|   Bounds   2            -67      67                Points:         135
 RS_GRID|   Bounds   3            -67      67                Points:         135
 RS_GRID| Real space fully replicated
 RS_GRID| Group size                                                           1

 RS_GRID| Information for grid number                                          4
 RS_GRID|   Bounds   1            -40      39                Points:          80
 RS_GRID|   Bounds   2            -40      39                Points:          80
 RS_GRID|   Bounds   3            -40      39                Points:          80
 RS_GRID| Real space fully replicated
 RS_GRID| Group size                                                           1

  HFX_INFO| Replica ID:                                                        1
  HFX_INFO| FRACTION:                                               0.2500000000
  HFX_INFO| Interaction Potential:                                       COULOMB
  HFX_INFO| EPS_SCHWARZ:                                                 1.0E-10
  HFX_INFO| EPS_SCHWARZ_FORCES                                           1.0E-08
  HFX_INFO| EPS_STORAGE_SCALING:                                         1.0E+00
  HFX_INFO| NBINS:                                                            64
  HFX_INFO| BLOCK_SIZE:                                                        1
  HFX_INFO| Number of periodic shells considered:                           NONE
  HFX_INFO| Number of periodic cells considered:                            NONE

 
 RI-RPA| using GPW style
 

 OVERLAP MATRIX CONDITION NUMBER
 1-Norm Condition Number (Estimate)
   CN : |A|*|A^-1|:  1.113E+001 *  2.727E+002   = 3.033E+003  Log(1-CN):  3.4819
 1-Norm and 2-Norm Condition Numbers using Diagonalization
   CN : |A|*|A^-1|:  1.113E+001 *  3.631E+002   = 4.040E+003  Log(1-CN):  3.6063
   CN : max/min ev:  5.311E+000 /  6.710E-003   = 7.915E+002  Log(2-CN):  2.8985

 Number of electrons:                                                        136
 Number of occupied orbitals:                                                 68
 Number of molecular orbitals:                                               163

 Number of orbital functions:                                                163
 Number of independent orbital functions:                                    163

 Extrapolation method: initial_guess

 Atomic guess: The first density matrix is obtained in terms of atomic orbitals
               and electronic configurations assigned to each atomic kind

 Guess for atomic kind: H

 Electronic structure
    Total number of core electrons                                          0.00
    Total number of valence electrons                                       1.00
    Total number of electrons                                               1.00
    Multiplicity                                                   not specified
    S      1.00


 *******************************************************************************
                  Iteration          Convergence                     Energy [au]
 *******************************************************************************
                          1        0.645465E-02                  -0.443631123483
                          2        0.932618E-03                  -0.443685732765
                          3        0.519913E-06                  -0.443686896372

 Energy components [Hartree]           Total Energy ::           -0.443686896372
                                        Band Energy ::           -0.225436097088
                                     Kinetic Energy ::            0.430574518289
                                   Potential Energy ::           -0.874261414661
                                      Virial (-V/T) ::            2.030453214314
                                        Core Energy ::           -0.496536053916
                                          XC Energy ::           -0.237394005036
                                     Coulomb Energy ::            0.290243162580

 Orbital energies  State     L     Occupation   Energy[a.u.]          Energy[eV]

                       1     0          1.000      -0.225436           -6.134428


 Total Electron Density at R=0:                                         0.220668

 Guess for atomic kind: N

 Electronic structure
    Total number of core electrons                                          0.00
    Total number of valence electrons                                       7.00
    Total number of electrons                                               7.00
    Multiplicity                                                   not specified
    S      2.00  2.00
    P      3.00


 *******************************************************************************
                  Iteration          Convergence                     Energy [au]
 *******************************************************************************
                          1        0.301551                     -53.973815306340
                          2        0.236385                     -53.983090543973
                          3        0.208022E-03                 -53.998986912883
                          4        0.118436E-04                 -53.998986915072
                          5        0.107309E-07                 -53.998986915114

 Energy components [Hartree]           Total Energy ::          -53.998986915114
                                        Band Energy ::          -29.999077661618
                                     Kinetic Energy ::           54.085149820813
                                   Potential Energy ::         -108.084136735928
                                      Virial (-V/T) ::            1.998406902708
                                        Core Energy ::          -73.782684889681
                                          XC Energy ::           -6.177276544954
                                     Coulomb Energy ::           25.960974519520

 Orbital energies  State     L     Occupation   Energy[a.u.]          Energy[eV]

                       1     0          2.000     -13.985047         -380.552488
                       2     0          2.000      -0.654080          -17.798415

                       1     1          3.000      -0.240275           -6.538204


[...]
 calculate_vxc_atom                  57  8.0    0.028    0.139    0.955    0.955
 mp_sendrecv_dv                   24510 10.0    0.899    0.931    0.899    0.931
 pw_scatter_p                       621 12.1    0.809    0.918    0.809    0.918
 rpa_num_int_RPA_matrix_operati     100  7.0    0.001    0.002    0.889    0.890
 dbt_total                            8  8.0    0.000    0.000    0.875    0.875
 dbt_contract                         4  9.0    0.001    0.001    0.706    0.862
 parser_read_line                203064  4.0    0.068    0.078    0.836    0.854
 gaVxcgb_GC                         112  9.0    0.031    0.802    0.031    0.802
 parser_read_line_low               222  5.0    0.064    0.324    0.768    0.786
 calculate_rho_atom_coeff            57  6.0    0.010    0.020    0.773    0.773
 rs_gather_matrices                  57 10.0    0.001    0.002    0.726    0.770
 broadcast_input_information        222  6.0    0.154    0.172    0.704    0.750
 grid_integrate_task_list            57 10.0    0.038    0.730    0.038    0.730
 pw_gather_p                        567 11.8    0.625    0.728    0.625    0.728
 cp2k_distribution_to_z_slices       57  9.0    0.263    0.288    0.586    0.724
 calc_mat_Q                         100  8.0    0.000    0.000    0.635    0.641
 fft_wrap_pw1pw2_90                 114 10.5    0.017    0.027    0.563    0.639
 rs_grid_zero                       287 11.1    0.614    0.637    0.614    0.637
 transfer_pw2rs_90                   57 12.0    0.130    0.152    0.558    0.631
 contract_S_to_Q                    100  9.0    0.001    0.001    0.623    0.630
 pw_poisson_rebuild                  57  9.0    0.000    0.000    0.605    0.628
 ps_wavelet_create                    1 10.0    0.000    0.000    0.605    0.628
 RS_z_slice_distribution              1 11.0    0.498    0.581    0.605    0.628
 mp_cart_create                     401 10.3    0.523    0.609    0.524    0.609
 transfer_rs2pw_90                   57  9.0    0.127    0.145    0.523    0.601
 pw_derive                          507 11.3    0.555    0.600    0.555    0.600
 dbt_pgrid_create_expert             84 10.8    0.000    0.000    0.502    0.585
 mp_isendrecv_dv                  49020 12.0    0.327    0.566    0.327    0.566
 compute_vec_Sigma_x_minus_vxc_       1  4.0    0.000    0.000    0.535    0.535
 dbt_copy                            12 10.0    0.000    0.000    0.084    0.510
 dbt_remap                            8 10.0    0.002    0.002    0.504    0.504
 dbt_reshape                          8 11.5    0.009    0.012    0.073    0.499
 mp_waitall_2                        50 15.8    0.061    0.486    0.061    0.486
 dbt_communicate_buffer               8 12.5    0.001    0.001    0.061    0.486
 dbt_nd_mp_comm                       8 11.0    0.000    0.000    0.433    0.485
 pw_copy                            850 10.6    0.425    0.465    0.425    0.465
 calculate_dm_sparse                 56  6.0    0.000    0.001    0.414    0.434
 cp_dbcsr_plus_fm_fm_t               56  7.0    0.001    0.001    0.413    0.434
 cp_fm_cholesky_invert              101  8.0    0.396    0.418    0.396    0.418
 mp2_main_alloc_hfx                   1  4.0    0.170    0.403    0.170    0.403
 mp_sum_i                            21  9.7    0.234    0.403    0.234    0.403
 restraint_control                    1  2.0    0.000    0.000    0.234    0.402
 mp_bcast_i_src                     888  7.0    0.239    0.377    0.239    0.377
 transfer_rs2pw_10                   57  9.0    0.138    0.149    0.362    0.372
 transfer_pw2rs_10                   57 12.0    0.136    0.168    0.355    0.370
 pw_poisson_set                      58  8.9    0.001    0.002    0.339    0.344
 mp_bcast_am_src                    222  7.0    0.222    0.277    0.250    0.333
 init_scf_run                         1  3.0    0.000    0.000    0.303    0.303
 qs_energies_init_hamiltonians        1  3.0    0.000    0.000    0.286    0.286
 dbcsr_complete_redistribute        199  8.4    0.010    0.012    0.275    0.285
 dbcsr_multiply_generic              93  8.1    0.005    0.005    0.261    0.283
 pw_copy_to_array                   567 11.8    0.239    0.283    0.239    0.283
 build_core_hamiltonian_matrix        1  4.0    0.000    0.000    0.275    0.275
 scf_env_initial_rho_setup            1  4.0    0.000    0.000    0.274    0.274
 overlap_condnum                      1  5.0    0.000    0.001    0.272    0.273
 mp_max_i                           645  2.6    0.116    0.271    0.116    0.271
 mp_irecv_dm3                      2064 11.5    0.114    0.270    0.114    0.270
 mp_isend_dm3                      2064 11.5    0.126    0.263    0.126    0.263
 pw_integral_ab_c1d_c1d_gs           57  9.0    0.185    0.187    0.238    0.261
 Vh_1c_gg_integrals                  57  8.0    0.006    0.046    0.125    0.258
 calculate_rho_atom                 171  9.0    0.159    0.258    0.159    0.258
 cp_fm_cholesky_decompose           102  9.0    0.242    0.244    0.242    0.244
 compute_Erpa_by_freq_int           100  8.0    0.001    0.001    0.243    0.243
 fft_wrap_pw1pw2_30                 114 10.5    0.003    0.004    0.223    0.232
 pw_copy_from_array                 621 12.1    0.185    0.231    0.185    0.231
 pw_axpy                            565  9.3    0.208    0.230    0.208    0.230
 qs_init_subsys                       1  2.0    0.007    0.009    0.228    0.229
 mp_alltoall_z11v                   228 13.5    0.212    0.222    0.212    0.222
 qs_env_setup                         1  3.0    0.000    0.000    0.216    0.220
 qs_env_rebuild_pw_env                2  3.5    0.000    0.000    0.215    0.220
 pw_env_rebuild                       1  5.0    0.001    0.001    0.215    0.219
 mp_sum_dv                        12868 12.3    0.177    0.217    0.177    0.217
 copy_dbcsr_to_fm                    83  6.5    0.002    0.002    0.196    0.200
 pw_grid_setup                        4  6.0    0.000    0.000    0.194    0.198
 pw_grid_setup_internal               4  7.0    0.003    0.005    0.194    0.197
 cp_fm_to_fm_submat_general         112 10.1    0.136    0.189    0.136    0.189
 copy_fm_to_dbcsr                   116  8.1    0.000    0.001    0.178    0.188
 dbt_tas_multiply                     8 11.5    0.000    0.000    0.188    0.188
 dbt_tas_total                        8 12.5    0.001    0.004    0.187    0.187
 arnoldi_conjugate_gradient           5  6.0    0.004    0.005    0.172    0.172
 mp_isend_dv                      17686 11.8    0.124    0.170    0.124    0.170
 cp_fm_syrk                           3  7.0    0.145    0.167    0.145    0.167
 create_B                             1  8.0    0.000    0.000    0.154    0.161
 mp_sum_l                           865  5.8    0.135    0.159    0.135    0.159
 dbcsr_desymmetrize_deep             85  7.5    0.003    0.003    0.147    0.150
 create_A                             1  8.0    0.001    0.001    0.147    0.149
 yz_to_xz                           114 14.0    0.010    0.011    0.136    0.145
 integrate_four_center_getP          57 10.0    0.019    0.021    0.140    0.143
 pw_zero                            338 10.3    0.110    0.128    0.110    0.128
 multiply_cannon                     93  9.1    0.010    0.025    0.107    0.128
 mp_alltoall_i11v                   682  9.3    0.121    0.122    0.121    0.122
 integrate_four_center_dist_KS       57 10.0    0.019    0.021    0.121    0.122
 hybrid_alltoall_any                271 10.9    0.004    0.005    0.102    0.118
 integrate_four_center_load          57 10.0    0.000    0.001    0.090    0.113
 fft_wrap_pw1pw2_10                 114 10.5    0.001    0.001    0.111    0.113
 hfx_load_balance                     1 11.0    0.000    0.000    0.089    0.113
 make_m2s                           186  9.1    0.004    0.004    0.104    0.110
 dbcsr_sym_matrix_vector_mult       564  7.0    0.009    0.011    0.085    0.107
 pw_grid_sort                         4  8.0    0.043    0.065    0.067    0.106
 mp_rank_compare                   1188 12.9    0.097    0.101    0.097    0.101
 cp_fm_redistribute_start            62  8.0    0.062    0.074    0.086    0.101
 xz_to_yz                           114 11.0    0.007    0.008    0.093    0.096
 hfx_load_balance_range               1 12.0    0.000    0.000    0.069    0.093
 dbt_tas_dbm                          8 13.5    0.000    0.000    0.092    0.092
 mp2_eri_3c_integrate                 1  7.0    0.001    0.003    0.042    0.091
 mp_bcast_iv                        349  5.8    0.029    0.091    0.029    0.091
 multiply_cannon_loop                93 10.1    0.014    0.015    0.070    0.091
 integrate_set_3c                  1852  8.0    0.037    0.081    0.041    0.089
 dbt_tas_mm_1N                        8 14.5    0.000    0.000    0.079    0.088
 dbm_multiply                         8 15.5    0.079    0.088    0.079    0.088
 mp_bcast_iv_src                    222  7.0    0.060    0.083    0.060    0.083
 dbt_tas_estimate_result_nze          4 12.0    0.001    0.004    0.080    0.080
 fm_general_add_bse                   5 10.2    0.000    0.000    0.064    0.074
 cp_fm_uplo_to_full                 104  8.0    0.019    0.073    0.019    0.073
 make_images                        186 10.1    0.009    0.025    0.069    0.072
 vxc_of_r_new                       224  9.0    0.000    0.009    0.002    0.064
 scf_post_calculation_gpw             1  3.0    0.000    0.000    0.062    0.064
 write_available_results              1  4.0    0.000    0.000    0.062    0.064
 postprocess_bse                      1  9.0    0.000    0.000    0.062    0.064
 write_mo_free_results                1  5.0    0.003    0.005    0.062    0.064
 mp_bcast_dv                        626  9.0    0.028    0.063    0.028    0.063
 mp_alltoall_i22                    284  9.2    0.057    0.062    0.057    0.062
 scale_and_distribute               114 10.0    0.055    0.061    0.055    0.061
 rs_scatter_matrices                 57  7.0    0.001    0.001    0.060    0.060
 calculate_rho0_atom                171  9.0    0.052    0.057    0.052    0.057
 dbcsr_add_d                        890  7.1    0.001    0.001    0.008    0.057
 pw_grid_remap                        4  8.0    0.003    0.005    0.053    0.056
 dbcsr_add_anytype                  890  8.1    0.001    0.007    0.007    0.056
 update_ks_atom                      57  8.0    0.007    0.015    0.048    0.055
 mp_sum_im3                           4  9.0    0.050    0.053    0.050    0.053
 dbcsr_finalize                    2122 10.8    0.006    0.017    0.022    0.052
 pw_scale                           225  9.5    0.038    0.050    0.038    0.050
 make_images_sizes                  186 11.1    0.000    0.000    0.046    0.047
 mp_alltoall_i44                    186 12.1    0.045    0.047    0.045    0.047
 mixing_init                          1  5.0    0.041    0.045    0.045    0.045
 dbcsr_col_vec_to_rep_row           564  8.0    0.004    0.005    0.027    0.045
 multiply_cannon_metrocomm3        2228 11.1    0.004    0.004    0.018    0.042
 sort_shells                          4  9.0    0.024    0.042    0.024    0.042
 mp_bcast_dm                       1140  9.0    0.041    0.041    0.041    0.041
 write_mo_set_to_restart             56  5.0    0.001    0.024    0.025    0.041
 cp_fm_symm                          57  7.0    0.038    0.041    0.038    0.041
 self_consistency_check              56  5.0    0.000    0.000    0.028    0.041
 cp_sm_mix                           56  6.0    0.000    0.000    0.027    0.040
 mp_max_d                            58  6.9    0.027    0.040    0.027    0.040
 dbt_tas_replicate                    8 13.5    0.015    0.024    0.036    0.039
 dbcsr_rep_row_to_rep_col_vec       564  8.0    0.003    0.004    0.016    0.039
 dbcsr_create_new                  4833  9.5    0.017    0.034    0.021    0.037
 multiply_cannon_metrocomm1        2228 11.1    0.003    0.003    0.008    0.037
 dbcsr_merge_all                   1451 11.6    0.009    0.034    0.011    0.036
 mp_maxloc_dv                      1521  1.0    0.033    0.035    0.033    0.035
 write_mo_set_low                     3  6.0    0.000    0.000    0.024    0.034
 cp_fm_write_unformatted              3  7.0    0.024    0.024    0.024    0.034
 mp_irecv_dv                      17761 11.8    0.016    0.034    0.016    0.034
 mp_comm_split_direct                48 14.5    0.023    0.033    0.023    0.034
 dbt_distribution_new_expert         76 10.1    0.001    0.001    0.032    0.033
 mp_sum_im                        10879 13.0    0.029    0.032    0.029    0.032
 dbcsr_copy                        2810  7.8    0.010    0.025    0.017    0.032
 get_multipoles_mo                    1 10.0    0.000    0.000    0.027    0.029
 hirshfeld_integration                1  6.0    0.002    0.010    0.029    0.029
 mult_B_with_W                        1  8.0    0.000    0.000    0.028    0.029
 print_transition_amplitudes          1 10.0    0.000    0.000    0.028    0.028
 print_transition_amplitudes_co      50 11.0    0.000    0.001    0.028    0.028
 filter_eigvec_contrib               50 12.0    0.016    0.017    0.028    0.028
 dbt_tas_distribution_new            94 11.7    0.017    0.018    0.027    0.028
 cube_transpose_2                   114 11.0    0.002    0.003    0.023    0.026
 mp2_main_free_hfx                    1  4.0    0.010    0.026    0.010    0.026
 calculate_hirshfeld_normalizat       1  6.0    0.002    0.011    0.023    0.024
 create_integ_mat                     4  6.0    0.001    0.001    0.022    0.024
 make_images_data                   186 11.1    0.002    0.003    0.007    0.023
 mp_allgather_i34                    93 10.1    0.022    0.023    0.022    0.023
 pw_grid_assign                       4  8.0    0.014    0.022    0.021    0.022
 dbt_split_blocks_generic            20  8.8    0.004    0.005    0.022    0.022
 mp_sum_iv                          279  9.6    0.019    0.022    0.019    0.022
 cube_transpose_1                   114 14.0    0.002    0.002    0.020    0.022
 multiply_cannon_multrec           2228 11.1    0.006    0.021    0.006    0.022
 dbcsr_iterator_start              8896  9.1    0.012    0.018    0.015    0.022
 dbcsr_crop_matrix                  280 10.0    0.002    0.002    0.020    0.021
 pw_grid_distribute                   4  8.0    0.010    0.014    0.018    0.021
 calc_fm_mat_S_rpa                  100  9.0    0.011    0.021    0.011    0.021
 array2fm                             4  7.0    0.000    0.000    0.017    0.020
 mp_cart_rank                     65592 10.1    0.017    0.019    0.017    0.019
 fm_general_add_bse_1_setup           5 11.2    0.017    0.019    0.017    0.019
 cp_dbcsr_sm_fm_multiply              3 11.0    0.000    0.000    0.019    0.019
 mp_bcast_av                        761  1.0    0.006    0.008    0.014    0.018
 dbcsr_make_untransposed_blocks     149  9.1    0.001    0.017    0.002    0.017
 fm_general_add_bse_5_comm_buff       5 11.2    0.000    0.000    0.009    0.017
 communicate_buffer                   5 12.2    0.001    0.001    0.009    0.017
 dbcsr_new_transposed                73  9.0    0.000    0.001    0.002    0.017
 dbt_create_new                      40  9.5    0.001    0.001    0.017    0.017
 mp_alltoall_i                       40 13.9    0.012    0.017    0.012    0.017
 dbcsr_copy_submatrix               280 11.0    0.002    0.003    0.015    0.016
 reshape_mm_small                     8 13.5    0.002    0.002    0.016    0.016
 Q_trace_and_add_unit_matrix        100  8.0    0.001    0.001    0.011    0.016
 compute_max_radius                   1  6.0    0.015    0.016    0.015    0.016
 mp_cart_sub                        172  8.6    0.015    0.015    0.015    0.015
 dbt_tas_create_split                44 13.2    0.000    0.000    0.015    0.015
 get_2c_integrals                     1  6.0    0.000    0.000    0.014    0.015
 dbt_tas_create_split_rows_or_c      44 14.2    0.000    0.000    0.014    0.015
 xc_pw_smooth                        56 10.0    0.000    0.000    0.012    0.014
 hfx_create                           1  2.0    0.013    0.014    0.013    0.014
 fm_general_add_bse_6_buffer_to       1 10.0    0.006    0.014    0.006    0.014
 dbcsr_iterator_stop               8896  9.1    0.009    0.012    0.010    0.014
 fm_general_add_bse_4_buf_from_       1 10.0    0.011    0.014    0.011    0.014
 fft3d_s                              1  2.0    0.000    0.013    0.001    0.014
 dbm_reserve_blocks                  66 13.9    0.012    0.014    0.012    0.014
 multiply_cannon_metrocomm4        2074 11.1    0.006    0.006    0.012    0.013
 fm_general_add_bse_4_buf_from_       1 10.0    0.012    0.013    0.012    0.013
 hfx_load_balance_redist              1 12.0    0.009    0.010    0.012    0.012
 dbt_tas_reshape                      9 14.2    0.000    0.000    0.011    0.012
 array2fm_info                        4  8.0    0.009    0.011    0.009    0.012
 multiply_cannon_metrocomm2        2013 11.1    0.006    0.006    0.011    0.011
 qs_env_update_s_mstruct              1  4.0    0.000    0.000    0.010    0.011
 qs_create_task_list                  1  5.0    0.000    0.000    0.010    0.010
 generate_qs_task_list                1  6.0    0.000    0.001    0.010    0.010
 calculate_first_density_matrix       1  5.0    0.000    0.000    0.007    0.010
 mp_send_dv                           3  8.0    0.000    0.010    0.000    0.010
 calculate_atomic_block_dm            1  6.0    0.001    0.002    0.007    0.010
 dbt_tas_communicate_buffer          17 15.9    0.001    0.001    0.007    0.010
 create_fast_row_vec_access        1128  8.0    0.005    0.006    0.007    0.010
 dbcsr_make_images_dense            114  9.9    0.002    0.002    0.006    0.009
 create_fast_col_vec_access        1128  8.0    0.005    0.006    0.007    0.009
 dbcsr_work_create                 1885 10.7    0.003    0.006    0.004    0.009
 distribute_tasks                     1  7.0    0.000    0.000    0.009    0.009
 mp_bcast_i                         646  2.9    0.006    0.009    0.006    0.009
 mp_comm_split                       62  9.0    0.009    0.009    0.009    0.009
 abc_contract                      1852  9.0    0.004    0.009    0.004    0.009
 dbcsr_work_destroy_all            1885 11.6    0.003    0.006    0.004    0.008
 dbt_tas_reserve_blocks_index        58 12.9    0.000    0.000    0.007    0.008
 dbcsr_dot                          113  8.0    0.001    0.001    0.006    0.008
 convert_to_new_pgrid                24 13.5    0.002    0.004    0.006    0.008
 dbcsr_data_release               24059 10.6    0.005    0.008    0.005    0.008
 dbcsr_scale_anytype                891  9.1    0.002    0.002    0.004    0.008
 mp_min_d                             1  6.0    0.004    0.008    0.004    0.008
 cp_fm_create                       309  7.8    0.006    0.008    0.006    0.008
 ao_to_mo_and_store_B_mult_gw_1       4  7.0    0.000    0.000    0.005    0.008
 dbt_tas_replicate_alltoall           8 14.5    0.000    0.000    0.006    0.008
 -------------------------------------------------------------------------------

 The number of warnings for this run is : 1
 
 -------------------------------------------------------------------------------
  **** **** ******  **  PROGRAM ENDED AT                 2025-03-30 16:02:30.645
 ***** ** ***  *** **   PROGRAM RAN ON                              i03r05c01s06
 **    ****   ******    PROGRAM RAN BY                                   di38fab
 ***** **    ** ** **   PROGRAM PROCESS ID                               1301141
  **** **  *******  **  PROGRAM STOPPED IN /hppfs/scratch/04/di38fab/07_MOL_non_
                                           aug/05_MOL_non_aug/05_MOL/aUKBqsEOTmq
                                           69kFe5R_nOg/5k_set_final_qzvp/RACWIB/
                                           cc-pVDZ/GW+BSE
