 DBCSR| CPU Multiplication driver                                           BLAS (U)
 DBCSR| Multrec recursion limit                                              512 (U)
 DBCSR| Multiplication stack size                                           1000 (D)
 DBCSR| Maximum elements for images                                    UNLIMITED (U)
 DBCSR| Multiplicative factor virtual images                                   1 (U)
 DBCSR| Use multiplication densification                                       T (D)
 DBCSR| Multiplication size stacks                                             3 (U)
 DBCSR| Use memory pool for CPU allocation                                     F (U)
 DBCSR| Number of 3D layers                                               SINGLE (U)
 DBCSR| Use MPI memory allocation                                              F (U)
 DBCSR| Use RMA algorithm                                                      F (U)
 DBCSR| Use Communication thread                                               T (U)
 DBCSR| Communication thread load                                             75 (D)
 DBCSR| MPI: My process id                                                     0
 DBCSR| MPI: Number of processes                                             216
 DBCSR| OMP: Current number of threads                                         4
 DBCSR| OMP: Max number of threads                                             4
 DBCSR| Split modifier for TAS multiplication algorithm                  1.0E+00 (U)


  **** **** ******  **  PROGRAM STARTED AT               2025-04-11 17:39:58.675
 ***** ** ***  *** **   PROGRAM STARTED ON                          i03r01c05s07
 **    ****   ******    PROGRAM STARTED BY                               di38fab
 ***** **    ** ** **   PROGRAM PROCESS ID                                 28345
  **** **  *******  **  PROGRAM STARTED IN /hppfs/scratch/04/di38fab/07_MOL_non_
                                           aug/05_MOL_non_aug/05_MOL/W4-11+ALK/a
                                           lf/cc-pV5Z/GW+BSE

 CP2K| version string:                 CP2K version 2025.1 (Development Version)
 CP2K| source code revision number:                             unknown revision
 CP2K| cp2kflags: omp libint fftw3 libxc parallel scalapack max_contr=4         
 CP2K| is freely available from                            https://www.cp2k.org/
 CP2K| Program compiled at                         Thu Apr 10 16:20:23 CEST 2025
 CP2K| Program compiled on                                               login01
 CP2K| Program compiled for                                        Supermuc-foss
 CP2K| Data directory path                  /hppfs/work/pn36zo/di38fab/cp2k/data
 CP2K| Input file name                                                    GW.inp

 GLOBAL| Force Environment number                                              1
 GLOBAL| Basis set file name            /hppfs/scratch/04/di38fab/04_TMD/BASIS_A
 GLOBAL| Potential file name            /hppfs/work/pn36zo/di38fab/cp2k/data/ALL
 GLOBAL| MM Potential file name                                     MM_POTENTIAL
 GLOBAL| Coordinate file name                                      __STD_INPUT__
 GLOBAL| Method name                                                        CP2K
 GLOBAL| Project name                                                       MoS2
 GLOBAL| Run type                                                         ENERGY
 GLOBAL| FFT library                                                       FFTW3
 GLOBAL| Diagonalization library                                       ScaLAPACK
 GLOBAL| DGEMM library                                                      BLAS
 GLOBAL| Orthonormality check for eigenvectors                          DISABLED
 GLOBAL| Matrix multiplication library                                 ScaLAPACK
 GLOBAL| All-to-all communication in single precision                          F
 GLOBAL| FFTs using library dependent lengths                                  F
 GLOBAL| Grid backend                                                       AUTO
 GLOBAL| Global print level                                               MEDIUM
 GLOBAL| MPI I/O enabled                                                       T
 GLOBAL| Total number of message passing processes                           216
 GLOBAL| Number of threads for this process                                    4
 GLOBAL| This output is from process                                           0
 GLOBAL| OpenMP stack size per thread (OMP_STACKSIZE)                    default
 GLOBAL| CPU model name             Intel(R) Xeon(R) Platinum 8174 CPU @ 3.10GHz

 MEMORY| system memory details [Kb]
 MEMORY|                        rank 0           min           max       average
 MEMORY| MemTotal             98436664      98436644      98436708      98436666
 MEMORY| MemFree              86810112      85031752      86869968      85416709
 MEMORY| Buffers                     0             0             0             0
 MEMORY| Cached                2194960       2192824       2400408       2368909
 MEMORY| Slab                   612264        598080       1086624        990897
 MEMORY| SReclaimable            90688         84700        254972        218520
 MEMORY| MemLikelyFree        89095760      87666700      89147492      88004138


 *** Fundamental physical constants (SI units) ***

 *** Literature: B. J. Mohr and B. N. Taylor,
 ***             CODATA recommended values of the fundamental physical
 ***             constants: 2006, Web Version 5.1
 ***             http://physics.nist.gov/constants

 Speed of light in vacuum [m/s]                             2.99792458000000E+08
 Magnetic constant or permeability of vacuum [N/A**2]       1.25663706143592E-06
 Electric constant or permittivity of vacuum [F/m]          8.85418781762039E-12
 Planck constant (h) [J*s]                                  6.62606896000000E-34
 Planck constant (h-bar) [J*s]                              1.05457162825177E-34
 Elementary charge [C]                                      1.60217648700000E-19
 Electron mass [kg]                                         9.10938215000000E-31
 Electron g factor [ ]                                     -2.00231930436220E+00
 Proton mass [kg]                                           1.67262163700000E-27
 Fine-structure constant                                    7.29735253760000E-03
 Rydberg constant [1/m]                                     1.09737315685270E+07
 Avogadro constant [1/mol]                                  6.02214179000000E+23
 Boltzmann constant [J/K]                                   1.38065040000000E-23
 Atomic mass unit [kg]                                      1.66053878200000E-27
 Bohr radius [m]                                            5.29177208590000E-11

 *** Conversion factors ***

 [u] -> [a.u.]                                              1.82288848426455E+03
 [Angstrom] -> [Bohr] = [a.u.]                              1.88972613288564E+00
 [a.u.] = [Bohr] -> [Angstrom]                              5.29177208590000E-01
 [a.u.] -> [s]                                              2.41888432650478E-17
 [a.u.] -> [fs]                                             2.41888432650478E-02
 [a.u.] -> [J]                                              4.35974393937059E-18
 [a.u.] -> [N]                                              8.23872205491840E-08
 [a.u.] -> [K]                                              3.15774647902944E+05
 [a.u.] -> [kJ/mol]                                         2.62549961709828E+03
 [a.u.] -> [kcal/mol]                                       6.27509468713739E+02
 [a.u.] -> [Pa]                                             2.94210107994716E+13
 [a.u.] -> [bar]                                            2.94210107994716E+08
 [a.u.] -> [atm]                                            2.90362800883016E+08
 [a.u.] -> [eV]                                             2.72113838565563E+01
 [a.u.] -> [Hz]                                             6.57968392072181E+15
 [a.u.] -> [1/cm] (wave numbers)                            2.19474631370540E+05
 [a.u./Bohr**2] -> [1/cm]                                   5.14048714338585E+03
 

 CELL_TOP| Volume [angstrom^3]:                                     27000.000000
 CELL_TOP| Vector a [angstrom    30.000     0.000     0.000   |a| =    30.000000
 CELL_TOP| Vector b [angstrom     0.000    30.000     0.000   |b| =    30.000000
 CELL_TOP| Vector c [angstrom     0.000     0.000    30.000   |c| =    30.000000
 CELL_TOP| Angle (b,c), alpha [degree]:                                90.000000
 CELL_TOP| Angle (a,c), beta  [degree]:                                90.000000
 CELL_TOP| Angle (a,b), gamma [degree]:                                90.000000
 CELL_TOP| Numerically orthorhombic:                                         YES
 CELL_TOP| Periodicity                                                      NONE

 GENERATE|  Preliminary Number of Bonds generated:                             0
 GENERATE|  Achieved consistency in connectivity generation.

 CELL| Volume [angstrom^3]:                                         27000.000000
 CELL| Vector a [angstrom]:      30.000     0.000     0.000   |a| =    30.000000
 CELL| Vector b [angstrom]:       0.000    30.000     0.000   |b| =    30.000000
 CELL| Vector c [angstrom]:       0.000     0.000    30.000   |c| =    30.000000
 CELL| Angle (b,c), alpha [degree]:                                    90.000000
 CELL| Angle (a,c), beta  [degree]:                                    90.000000
 CELL| Angle (a,b), gamma [degree]:                                    90.000000
 CELL| Numerically orthorhombic:                                             YES
 CELL| Periodicity                                                          NONE

 CELL_REF| Volume [angstrom^3]:                                     27000.000000
 CELL_REF| Vector a [angstrom    30.000     0.000     0.000   |a| =    30.000000
 CELL_REF| Vector b [angstrom     0.000    30.000     0.000   |b| =    30.000000
 CELL_REF| Vector c [angstrom     0.000     0.000    30.000   |c| =    30.000000
 CELL_REF| Angle (b,c), alpha [degree]:                                90.000000
 CELL_REF| Angle (a,c), beta  [degree]:                                90.000000
 CELL_REF| Angle (a,b), gamma [degree]:                                90.000000
 CELL_REF| Numerically orthorhombic:                                         YES
 CELL_REF| Periodicity                                                      NONE

 *******************************************************************************
 *******************************************************************************
 **                                                                           **
 **     #####                         ##              ##                      **
 **    ##   ##            ##          ##              ##                      **
 **   ##     ##                       ##            ######                    **
 **   ##     ##  ##   ##  ##   #####  ##  ##   ####   ##    #####    #####    **
 **   ##     ##  ##   ##  ##  ##      ## ##   ##      ##   ##   ##  ##   ##   **
 **   ##  ## ##  ##   ##  ##  ##      ####     ###    ##   ######   ######    **
 **    ##  ###   ##   ##  ##  ##      ## ##      ##   ##   ##       ##        **
 **     #######   #####   ##   #####  ##  ##  ####    ##    #####   ##        **
 **           ##                                                    ##        **
 **                                                                           **
 **                                                ... make the atoms dance   **
 **                                                                           **
 **            Copyright (C) by CP2K developers group (2000-2025)             **
 **                      J. Chem. Phys. 152, 194103 (2020)                    **
 **                                                                           **
 *******************************************************************************

 DFT| Spin restricted Kohn-Sham (RKS) calculation                            RKS
 DFT| Multiplicity                                                             1
 DFT| Number of spin states                                                    1
 DFT| Charge                                                                   0
 DFT| Self-interaction correction (SIC)                                       NO
 DFT| Cutoffs: density                                              1.000000E-10
 DFT|          gradient                                             1.000000E-10
 DFT|          tau                                                  1.000000E-10
 DFT|          cutoff_smoothing_range                               0.000000E+00
 DFT| XC density smoothing                                                  NONE
 DFT| XC derivatives                                                          PW

 FUNCTIONAL| PBE:
 FUNCTIONAL| J.P.Perdew, K.Burke, M.Ernzerhof, Phys. Rev. Letter, vol. 77, n 18,
 FUNCTIONAL|  pp. 3865-3868, (1996)sx=0.750sc=1.000{spin unpolarized}           


 QS| Method:                                                                GAPW
 QS| Density plane wave grid type                        NON-SPHERICAL FULLSPACE
 QS| Number of grid levels:                                                    4
 QS| Density cutoff [a.u.]:                                                250.0
 QS| Multi grid cutoff [a.u.]: 1) grid level                               250.0
 QS|                           2) grid level                                83.3
 QS|                           3) grid level                                27.8
 QS|                           4) grid level                                 9.3
 QS| Grid level progression factor:                                          3.0
 QS| Relative density cutoff [a.u.]:                                        50.0
 QS| Interaction thresholds: eps_pgf_orb:                                1.0E-12
 QS|                         eps_filter_matrix:                          0.0E+00
 QS|                         eps_core_charge:                            1.0E-14
 QS|                         eps_rho_gspace:                             1.0E-12
 QS|                         eps_rho_rspace:                             1.0E-12
 QS|                         eps_gvg_rspace:                             1.0E-06
 QS|                         eps_ppl:                                    1.0E-02
 QS|                         eps_ppnl:                                   1.0E-08
 QS| GAPW|      One center basis from orbital basis primitives
 QS| GAPW|                   eps_fit:                                    1.0E-04
 QS| GAPW|                   eps_iso:                                    1.0E-12
 QS| GAPW|                   eps_svd:                                    1.0E-08
 QS| GAPW|                   eps_cpc:                                    1.0E-12
 QS| GAPW|   atom-r-grid: quadrature:                                     GC_LOG
 QS| GAPW|      atom-s-grid:  max l :                                         10
 QS| GAPW|      max_l_rho0 :                                                   2


 ATOMIC KIND INFORMATION

  1. Atomic kind: AL                                    Number of atoms:       1

     Orbital Basis Set                                                   cc-pV5Z

       Number of orbital shell sets:                                           6
       Number of orbital shells:                                              23
       Number of primitive Cartesian functions:                               42
       Number of Cartesian basis functions:                                  130
       Number of spherical basis functions:                                   95
       Norm type:                                                              2

       Normalised Cartesian orbitals:

                        Set   Shell   Orbital            Exponent    Coefficient

                          1       1    1px            1461.000000       2.685928
                                                       346.200000       3.852917
                                                       112.200000       5.066843
                                                        42.510000       5.852636
                                                        17.720000       5.747033
                                                         7.852000       4.389638
                                                         3.571000       2.415767
                                                         1.637000       0.874768
                                                         0.738200       0.143438
                                                         0.257700       0.003178
                                                         0.097730      -0.000068
                                                         0.036900       0.000010
                          1       1    1py            1461.000000       2.685928
                                                       346.200000       3.852917
                                                       112.200000       5.066843
                                                        42.510000       5.852636
                                                        17.720000       5.747033
                                                         7.852000       4.389638
                                                         3.571000       2.415767
                                                         1.637000       0.874768
                                                         0.738200       0.143438
                                                         0.257700       0.003178
                                                         0.097730      -0.000068
                                                         0.036900       0.000010
                          1       1    1pz            1461.000000       2.685928
                                                       346.200000       3.852917
                                                       112.200000       5.066843
                                                        42.510000       5.852636
                                                        17.720000       5.747033
                                                         7.852000       4.389638
                                                         3.571000       2.415767
                                                         1.637000       0.874768
                                                         0.738200       0.143438
                                                         0.257700       0.003178
                                                         0.097730      -0.000068
                                                         0.036900       0.000010

                          1       2    2px            1461.000000       0.000000
                                                       346.200000       0.000000
                                                       112.200000       0.000000
                                                        42.510000       0.000000
                                                        17.720000       0.000000
                                                         7.852000       0.000000
                                                         3.571000       0.000000
                                                         1.637000       0.000000
                                                         0.738200       0.975344
                                                         0.257700       0.000000
                                                         0.097730       0.000000
                                                         0.036900       0.000000
                          1       2    2py            1461.000000       0.000000
                                                       346.200000       0.000000
                                                       112.200000       0.000000
                                                        42.510000       0.000000
                                                        17.720000       0.000000
                                                         7.852000       0.000000
                                                         3.571000       0.000000
                                                         1.637000       0.000000
                                                         0.738200       0.975344
                                                         0.257700       0.000000
                                                         0.097730       0.000000
                                                         0.036900       0.000000
                          1       2    2pz            1461.000000       0.000000
                                                       346.200000       0.000000
                                                       112.200000       0.000000
                                                        42.510000       0.000000
                                                        17.720000       0.000000
                                                         7.852000       0.000000
                                                         3.571000       0.000000
                                                         1.637000       0.000000
                                                         0.738200       0.975344
                                                         0.257700       0.000000
                                                         0.097730       0.000000
                                                         0.036900       0.000000

                          1       3    3px            1461.000000       0.000000
                                                       346.200000       0.000000
                                                       112.200000       0.000000
                                                        42.510000       0.000000
                                                        17.720000       0.000000
                                                         7.852000       0.000000
                                                         3.571000       0.000000
                                                         1.637000       0.000000
                                                         0.738200       0.000000
                                                         0.257700       0.261718
                                                         0.097730       0.000000
                                                         0.036900       0.000000
                          1       3    3py            1461.000000       0.000000
                                                       346.200000       0.000000
                                                       112.200000       0.000000
                                                        42.510000       0.000000
                                                        17.720000       0.000000
                                                         7.852000       0.000000
                                                         3.571000       0.000000
                                                         1.637000       0.000000
                                                         0.738200       0.000000
                                                         0.257700       0.261718
                                                         0.097730       0.000000
                                                         0.036900       0.000000
                          1       3    3pz            1461.000000       0.000000
                                                       346.200000       0.000000
                                                       112.200000       0.000000
                                                        42.510000       0.000000
                                                        17.720000       0.000000
                                                         7.852000       0.000000
                                                         3.571000       0.000000
                                                         1.637000       0.000000
                                                         0.738200       0.000000
                                                         0.257700       0.261718
                                                         0.097730       0.000000
                                                         0.036900       0.000000

                          1       4    4px            1461.000000       0.000000
                                                       346.200000       0.000000
                                                       112.200000       0.000000
                                                        42.510000       0.000000
                                                        17.720000       0.000000
                                                         7.852000       0.000000
                                                         3.571000       0.000000
                                                         1.637000       0.000000
                                                         0.738200       0.000000
                                                         0.257700       0.000000
                                                         0.097730       0.077889
                                                         0.036900       0.000000
                          1       4    4py            1461.000000       0.000000
                                                       346.200000       0.000000
                                                       112.200000       0.000000
                                                        42.510000       0.000000
                                                        17.720000       0.000000
                                                         7.852000       0.000000
                                                         3.571000       0.000000
                                                         1.637000       0.000000
                                                         0.738200       0.000000
                                                         0.257700       0.000000
                                                         0.097730       0.077889
                                                         0.036900       0.000000
                          1       4    4pz            1461.000000       0.000000
                                                       346.200000       0.000000
                                                       112.200000       0.000000
                                                        42.510000       0.000000
                                                        17.720000       0.000000
                                                         7.852000       0.000000
                                                         3.571000       0.000000
                                                         1.637000       0.000000
                                                         0.738200       0.000000
                                                         0.257700       0.000000
                                                         0.097730       0.077889
                                                         0.036900       0.000000

                          1       5    5px            1461.000000      -0.478888
                                                       346.200000      -0.699387
                                                       112.200000      -0.907066
                                                        42.510000      -1.075056
                                                        17.720000      -1.051000
                                                         7.852000      -0.840581
                                                         3.571000      -0.450118
                                                         1.637000      -0.198657
                                                         0.738200       0.000601
                                                         0.257700       0.075327
                                                         0.097730       0.042296
                                                         0.036900       0.006959
                          1       5    5py            1461.000000      -0.478888
                                                       346.200000      -0.699387
                                                       112.200000      -0.907066
                                                        42.510000      -1.075056
                                                        17.720000      -1.051000
                                                         7.852000      -0.840581
                                                         3.571000      -0.450118
                                                         1.637000      -0.198657
                                                         0.738200       0.000601
                                                         0.257700       0.075327
                                                         0.097730       0.042296
                                                         0.036900       0.006959
                          1       5    5pz            1461.000000      -0.478888
                                                       346.200000      -0.699387
                                                       112.200000      -0.907066
                                                        42.510000      -1.075056
                                                        17.720000      -1.051000
                                                         7.852000      -0.840581
                                                         3.571000      -0.450118
                                                         1.637000      -0.198657
                                                         0.738200       0.000601
                                                         0.257700       0.075327
                                                         0.097730       0.042296
                                                         0.036900       0.006959

                          1       6    6px            1461.000000       0.000000
                                                       346.200000       0.000000
                                                       112.200000       0.000000
                                                        42.510000       0.000000
                                                        17.720000       0.000000
                                                         7.852000       0.000000
                                                         3.571000       0.000000
                                                         1.637000       0.000000
                                                         0.738200       0.000000
                                                         0.257700       0.000000
                                                         0.097730       0.000000
                                                         0.036900       0.023053
                          1       6    6py            1461.000000       0.000000
                                                       346.200000       0.000000
                                                       112.200000       0.000000
                                                        42.510000       0.000000
                                                        17.720000       0.000000
                                                         7.852000       0.000000
                                                         3.571000       0.000000
                                                         1.637000       0.000000
                                                         0.738200       0.000000
                                                         0.257700       0.000000
                                                         0.097730       0.000000
                                                         0.036900       0.023053
                          1       6    6pz            1461.000000       0.000000
                                                       346.200000       0.000000
                                                       112.200000       0.000000
                                                        42.510000       0.000000
                                                        17.720000       0.000000
                                                         7.852000       0.000000
                                                         3.571000       0.000000
                                                         1.637000       0.000000
                                                         0.738200       0.000000
                                                         0.257700       0.000000
                                                         0.097730       0.000000
                                                         0.036900       0.023053

                          2       1    1s          3269000.000000       0.117235
                                                    489400.000000       0.219258
                                                    111400.000000       0.380334
                                                     31560.000000       0.622698
                                                     10320.000000       0.977147
                                                      3731.000000       1.482186
                                                      1456.000000       2.166303
                                                       604.100000       3.023929
                                                       263.500000       3.931841
                                                       119.800000       4.539789
                                                        56.320000       4.279816
                                                        27.190000       2.785364
                                                        13.260000       0.925741
                                                         6.052000       0.085369
                                                         2.981000      -0.000823
                                                         1.476000       0.001420
                                                         0.733400      -0.000157
                                                         0.244700       0.000029
                                                         0.108800      -0.000009
                                                         0.046720       0.000001

                          2       2    2s          3269000.000000      -0.030466
                                                    489400.000000      -0.057009
                                                    111400.000000      -0.098830
                                                     31560.000000      -0.162027
                                                     10320.000000      -0.254225
                                                      3731.000000      -0.387310
                                                      1456.000000      -0.569053
                                                       604.100000      -0.808960
                                                       263.500000      -1.086161
                                                       119.800000      -1.351007
                                                        56.320000      -1.464500
                                                        27.190000      -1.277693
                                                        13.260000      -0.589938
                                                         6.052000       0.297251
                                                         2.981000       0.664752
                                                         1.476000       0.436359
                                                         0.733400       0.099375
                                                         0.244700       0.001911
                                                         0.108800      -0.000224
                                                         0.046720       0.000032

                          2       3    3s          3269000.000000       0.000000
                                                    489400.000000       0.000000
                                                    111400.000000       0.000000
                                                     31560.000000       0.000000
                                                     10320.000000       0.000000
                                                      3731.000000       0.000000
                                                      1456.000000       0.000000
                                                       604.100000       0.000000
                                                       263.500000       0.000000
                                                       119.800000       0.000000
                                                        56.320000       0.000000
                                                        27.190000       0.000000
                                                        13.260000       0.000000
                                                         6.052000       0.000000
                                                         2.981000       0.000000
                                                         1.476000       0.000000
                                                         0.733400       0.564827
                                                         0.244700       0.000000
                                                         0.108800       0.000000
                                                         0.046720       0.000000

                          2       4    4s          3269000.000000       0.000000
                                                    489400.000000       0.000000
                                                    111400.000000       0.000000
                                                     31560.000000       0.000000
                                                     10320.000000       0.000000
                                                      3731.000000       0.000000
                                                      1456.000000       0.000000
                                                       604.100000       0.000000
                                                       263.500000       0.000000
                                                       119.800000       0.000000
                                                        56.320000       0.000000
                                                        27.190000       0.000000
                                                        13.260000       0.000000
                                                         6.052000       0.000000
                                                         2.981000       0.000000
                                                         1.476000       0.000000
                                                         0.733400       0.000000
                                                         0.244700       0.247962
                                                         0.108800       0.000000
                                                         0.046720       0.000000

                          2       5    5s          3269000.000000       0.000000
                                                    489400.000000       0.000000
                                                    111400.000000       0.000000
                                                     31560.000000       0.000000
                                                     10320.000000       0.000000
                                                      3731.000000       0.000000
                                                      1456.000000       0.000000
                                                       604.100000       0.000000
                                                       263.500000       0.000000
                                                       119.800000       0.000000
                                                        56.320000       0.000000
                                                        27.190000       0.000000
                                                        13.260000       0.000000
                                                         6.052000       0.000000
                                                         2.981000       0.000000
                                                         1.476000       0.000000
                                                         0.733400       0.000000
                                                         0.244700       0.000000
                                                         0.108800       0.135015
                                                         0.046720       0.000000

                          2       6    6s          3269000.000000       0.007037
                                                    489400.000000       0.013155
                                                    111400.000000       0.022837
                                                     31560.000000       0.037371
                                                     10320.000000       0.058778
                                                      3731.000000       0.089314
                                                      1456.000000       0.131740
                                                       604.100000       0.186749
                                                       263.500000       0.252624
                                                       119.800000       0.314046
                                                        56.320000       0.347001
                                                        27.190000       0.306301
                                                        13.260000       0.150199
                                                         6.052000      -0.084985
                                                         2.981000      -0.192614
                                                         1.476000      -0.201514
                                                         0.733400      -0.089211
                                                         0.244700       0.084069
                                                         0.108800       0.082777
                                                         0.046720       0.016843

                          2       7    7s          3269000.000000       0.000000
                                                    489400.000000       0.000000
                                                    111400.000000       0.000000
                                                     31560.000000       0.000000
                                                     10320.000000       0.000000
                                                      3731.000000       0.000000
                                                      1456.000000       0.000000
                                                       604.100000       0.000000
                                                       263.500000       0.000000
                                                       119.800000       0.000000
                                                        56.320000       0.000000
                                                        27.190000       0.000000
                                                        13.260000       0.000000
                                                         6.052000       0.000000
                                                         2.981000       0.000000
                                                         1.476000       0.000000
                                                         0.733400       0.000000
                                                         0.244700       0.000000
                                                         0.108800       0.000000
                                                         0.046720       0.071620

                          3       1    1dx2              1.317000       2.664922
                                                         0.526000       0.000000
                                                         0.210000       0.000000
                                                         0.084000       0.000000
                          3       1    1dxy              1.317000       4.615781
                                                         0.526000       0.000000
                                                         0.210000       0.000000
                                                         0.084000       0.000000
                          3       1    1dxz              1.317000       4.615781
                                                         0.526000       0.000000
                                                         0.210000       0.000000
                                                         0.084000       0.000000
                          3       1    1dy2              1.317000       2.664922
                                                         0.526000       0.000000
                                                         0.210000       0.000000
                                                         0.084000       0.000000
                          3       1    1dyz              1.317000       4.615781
                                                         0.526000       0.000000
                                                         0.210000       0.000000
                                                         0.084000       0.000000
                          3       1    1dz2              1.317000       2.664922
                                                         0.526000       0.000000
                                                         0.210000       0.000000
                                                         0.084000       0.000000

                          3       2    2dx2              1.317000       0.000000
                                                         0.526000       0.534730
                                                         0.210000       0.000000
                                                         0.084000       0.000000
                          3       2    2dxy              1.317000       0.000000
                                                         0.526000       0.926179
                                                         0.210000       0.000000
                                                         0.084000       0.000000
                          3       2    2dxz              1.317000       0.000000
                                                         0.526000       0.926179
                                                         0.210000       0.000000
                                                         0.084000       0.000000
                          3       2    2dy2              1.317000       0.000000
                                                         0.526000       0.534730
                                                         0.210000       0.000000
                                                         0.084000       0.000000
                          3       2    2dyz              1.317000       0.000000
                                                         0.526000       0.926179
                                                         0.210000       0.000000
                                                         0.084000       0.000000
                          3       2    2dz2              1.317000       0.000000
                                                         0.526000       0.534730
                                                         0.210000       0.000000
                                                         0.084000       0.000000

                          3       3    3dx2              1.317000       0.000000
                                                         0.526000       0.000000
                                                         0.210000       0.107224
                                                         0.084000       0.000000
                          3       3    3dxy              1.317000       0.000000
                                                         0.526000       0.000000
                                                         0.210000       0.185718
                                                         0.084000       0.000000
                          3       3    3dxz              1.317000       0.000000
                                                         0.526000       0.000000
                                                         0.210000       0.185718
                                                         0.084000       0.000000
                          3       3    3dy2              1.317000       0.000000
                                                         0.526000       0.000000
                                                         0.210000       0.107224
                                                         0.084000       0.000000
                          3       3    3dyz              1.317000       0.000000
                                                         0.526000       0.000000
                                                         0.210000       0.185718
                                                         0.084000       0.000000
                          3       3    3dz2              1.317000       0.000000
                                                         0.526000       0.000000
                                                         0.210000       0.107224
                                                         0.084000       0.000000

                          3       4    4dx2              1.317000       0.000000
                                                         0.526000       0.000000
                                                         0.210000       0.000000
                                                         0.084000       0.021572
                          3       4    4dxy              1.317000       0.000000
                                                         0.526000       0.000000
                                                         0.210000       0.000000
                                                         0.084000       0.037364
                          3       4    4dxz              1.317000       0.000000
                                                         0.526000       0.000000
                                                         0.210000       0.000000
                                                         0.084000       0.037364
                          3       4    4dy2              1.317000       0.000000
                                                         0.526000       0.000000
                                                         0.210000       0.000000
                                                         0.084000       0.021572
                          3       4    4dyz              1.317000       0.000000
                                                         0.526000       0.000000
                                                         0.210000       0.000000
                                                         0.084000       0.037364
                          3       4    4dz2              1.317000       0.000000
                                                         0.526000       0.000000
                                                         0.210000       0.000000
                                                         0.084000       0.021572

                          4       1    1fx3              0.513000       0.327883
                                                         0.258000       0.000000
                                                         0.130000       0.000000
                          4       1    1fx2y             0.513000       0.733168
                                                         0.258000       0.000000
                                                         0.130000       0.000000
                          4       1    1fx2z             0.513000       0.733168
                                                         0.258000       0.000000
                                                         0.130000       0.000000
                          4       1    1fxy2             0.513000       0.733168
                                                         0.258000       0.000000
                                                         0.130000       0.000000
                          4       1    1fxyz             0.513000       1.269884
                                                         0.258000       0.000000
                                                         0.130000       0.000000
                          4       1    1fxz2             0.513000       0.733168
                                                         0.258000       0.000000
                                                         0.130000       0.000000
                          4       1    1fy3              0.513000       0.327883
                                                         0.258000       0.000000
                                                         0.130000       0.000000
                          4       1    1fy2z             0.513000       0.733168
                                                         0.258000       0.000000
                                                         0.130000       0.000000
                          4       1    1fyz2             0.513000       0.733168
                                                         0.258000       0.000000
                                                         0.130000       0.000000
                          4       1    1fz3              0.513000       0.327883
                                                         0.258000       0.000000
                                                         0.130000       0.000000

                          4       2    2fx3              0.513000       0.000000
                                                         0.258000       0.069839
                                                         0.130000       0.000000
                          4       2    2fx2y             0.513000       0.000000
                                                         0.258000       0.156165
                                                         0.130000       0.000000
                          4       2    2fx2z             0.513000       0.000000
                                                         0.258000       0.156165
                                                         0.130000       0.000000
                          4       2    2fxy2             0.513000       0.000000
                                                         0.258000       0.156165
                                                         0.130000       0.000000
                          4       2    2fxyz             0.513000       0.000000
                                                         0.258000       0.270486
                                                         0.130000       0.000000
                          4       2    2fxz2             0.513000       0.000000
                                                         0.258000       0.156165
                                                         0.130000       0.000000
                          4       2    2fy3              0.513000       0.000000
                                                         0.258000       0.069839
                                                         0.130000       0.000000
                          4       2    2fy2z             0.513000       0.000000
                                                         0.258000       0.156165
                                                         0.130000       0.000000
                          4       2    2fyz2             0.513000       0.000000
                                                         0.258000       0.156165
                                                         0.130000       0.000000
                          4       2    2fz3              0.513000       0.000000
                                                         0.258000       0.069839
                                                         0.130000       0.000000

                          4       3    3fx3              0.513000       0.000000
                                                         0.258000       0.000000
                                                         0.130000       0.014939
                          4       3    3fx2y             0.513000       0.000000
                                                         0.258000       0.000000
                                                         0.130000       0.033405
                          4       3    3fx2z             0.513000       0.000000
                                                         0.258000       0.000000
                                                         0.130000       0.033405
                          4       3    3fxy2             0.513000       0.000000
                                                         0.258000       0.000000
                                                         0.130000       0.033405
                          4       3    3fxyz             0.513000       0.000000
                                                         0.258000       0.000000
                                                         0.130000       0.057859
                          4       3    3fxz2             0.513000       0.000000
                                                         0.258000       0.000000
                                                         0.130000       0.033405
                          4       3    3fy3              0.513000       0.000000
                                                         0.258000       0.000000
                                                         0.130000       0.014939
                          4       3    3fy2z             0.513000       0.000000
                                                         0.258000       0.000000
                                                         0.130000       0.033405
                          4       3    3fyz2             0.513000       0.000000
                                                         0.258000       0.000000
                                                         0.130000       0.033405
                          4       3    3fz3              0.513000       0.000000
                                                         0.258000       0.000000
                                                         0.130000       0.014939

                          5       1    1gx4              0.543000       0.207556
                                                         0.252000       0.000000
                          5       1    1gx3y             0.543000       0.549141
                                                         0.252000       0.000000
                          5       1    1gx3z             0.543000       0.549141
                                                         0.252000       0.000000
                          5       1    1gx2y2            0.543000       0.708938
                                                         0.252000       0.000000
                          5       1    1gx2yz            0.543000       1.227917
                                                         0.252000       0.000000
                          5       1    1gx2z2            0.543000       0.708938
                                                         0.252000       0.000000
                          5       1    1gxy3             0.543000       0.549141
                                                         0.252000       0.000000
                          5       1    1gxy2z            0.543000       1.227917
                                                         0.252000       0.000000
                          5       1    1gxyz2            0.543000       1.227917
                                                         0.252000       0.000000
                          5       1    1gxz3             0.543000       0.549141
                                                         0.252000       0.000000
                          5       1    1gy4              0.543000       0.207556
                                                         0.252000       0.000000
                          5       1    1gy3z             0.543000       0.549141
                                                         0.252000       0.000000
                          5       1    1gy2z2            0.543000       0.708938
                                                         0.252000       0.000000
                          5       1    1gyz3             0.543000       0.549141
                                                         0.252000       0.000000
                          5       1    1gz4              0.543000       0.207556
                                                         0.252000       0.000000

                          5       2    2gx4              0.543000       0.000000
                                                         0.252000       0.025135
                          5       2    2gx3y             0.543000       0.000000
                                                         0.252000       0.066502
                          5       2    2gx3z             0.543000       0.000000
                                                         0.252000       0.066502
                          5       2    2gx2y2            0.543000       0.000000
                                                         0.252000       0.085854
                          5       2    2gx2yz            0.543000       0.000000
                                                         0.252000       0.148703
                          5       2    2gx2z2            0.543000       0.000000
                                                         0.252000       0.085854
                          5       2    2gxy3             0.543000       0.000000
                                                         0.252000       0.066502
                          5       2    2gxy2z            0.543000       0.000000
                                                         0.252000       0.148703
                          5       2    2gxyz2            0.543000       0.000000
                                                         0.252000       0.148703
                          5       2    2gxz3             0.543000       0.000000
                                                         0.252000       0.066502
                          5       2    2gy4              0.543000       0.000000
                                                         0.252000       0.025135
                          5       2    2gy3z             0.543000       0.000000
                                                         0.252000       0.066502
                          5       2    2gy2z2            0.543000       0.000000
                                                         0.252000       0.085854
                          5       2    2gyz3             0.543000       0.000000
                                                         0.252000       0.066502
                          5       2    2gz4              0.543000       0.000000
                                                         0.252000       0.025135

                          6       1    1hx5              0.446000       0.053788
                          6       1    1hx4y             0.446000       0.161363
                          6       1    1hx4z             0.446000       0.161363
                          6       1    1hx3y2            0.446000       0.246486
                          6       1    1hx3yz            0.446000       0.426926
                          6       1    1hx3z2            0.446000       0.246486
                          6       1    1hx2y3            0.446000       0.246486
                          6       1    1hx2y2z           0.446000       0.551159
                          6       1    1hx2yz2           0.446000       0.551159
                          6       1    1hx2z3            0.446000       0.246486
                          6       1    1hxy4             0.446000       0.161363
                          6       1    1hxy3z            0.446000       0.426926
                          6       1    1hxy2z2           0.446000       0.551159
                          6       1    1hxyz3            0.446000       0.426926
                          6       1    1hxz4             0.446000       0.161363
                          6       1    1hy5              0.446000       0.053788
                          6       1    1hy4z             0.446000       0.161363
                          6       1    1hy3z2            0.446000       0.246486
                          6       1    1hy2z3            0.446000       0.246486
                          6       1    1hyz4             0.446000       0.161363
                          6       1    1hz5              0.446000       0.053788

     RI Auxiliary Basis Set                                        cc-pV5Z-RIFIT

       Number of orbital shell sets:                                          48
       Number of orbital shells:                                              48
       Number of primitive Cartesian functions:                               48
       Number of Cartesian basis functions:                                  335
       Number of spherical basis functions:                                  230
       Norm type:                                                              2

       Normalised Cartesian orbitals:

                        Set   Shell   Orbital            Exponent    Coefficient

                          1       1    1s                0.096048       0.122963

                          2       1    1px               0.097041       0.077203
                          2       1    1py               0.097041       0.077203
                          2       1    1pz               0.097041       0.077203

                          3       1    1dx2              0.120513       0.040571
                          3       1    1dxy              0.120513       0.070272
                          3       1    1dxz              0.120513       0.070272
                          3       1    1dy2              0.120513       0.040571
                          3       1    1dyz              0.120513       0.070272
                          3       1    1dz2              0.120513       0.040571

                          4       1    1s                0.167892       0.186932

                          5       1    1fx3              0.170021       0.027327
                          5       1    1fx2y             0.170021       0.061104
                          5       1    1fx2z             0.170021       0.061104
                          5       1    1fxy2             0.170021       0.061104
                          5       1    1fxyz             0.170021       0.105835
                          5       1    1fxz2             0.170021       0.061104
                          5       1    1fy3              0.170021       0.027327
                          5       1    1fy2z             0.170021       0.061104
                          5       1    1fyz2             0.170021       0.061104
                          5       1    1fz3              0.170021       0.027327

                          6       1    1gx4              0.179601       0.009903
                          6       1    1gx3y             0.179601       0.026202
                          6       1    1gx3z             0.179601       0.026202
                          6       1    1gx2y2            0.179601       0.033827
                          6       1    1gx2yz            0.179601       0.058589
                          6       1    1gx2z2            0.179601       0.033827
                          6       1    1gxy3             0.179601       0.026202
                          6       1    1gxy2z            0.179601       0.058589
                          6       1    1gxyz2            0.179601       0.058589
                          6       1    1gxz3             0.179601       0.026202
                          6       1    1gy4              0.179601       0.009903
                          6       1    1gy3z             0.179601       0.026202
                          6       1    1gy2z2            0.179601       0.033827
                          6       1    1gyz3             0.179601       0.026202
                          6       1    1gz4              0.179601       0.009903

                          7       1    1px               0.205576       0.197313
                          7       1    1py               0.205576       0.197313
                          7       1    1pz               0.205576       0.197313

                          8       1    1dx2              0.209892       0.107128
                          8       1    1dxy              0.209892       0.185551
                          8       1    1dxz              0.209892       0.185551
                          8       1    1dy2              0.209892       0.107128
                          8       1    1dyz              0.209892       0.185551
                          8       1    1dz2              0.209892       0.107128

                          9       1    1s                0.263767       0.262316

                         10       1    1fx3              0.278218       0.082760
                         10       1    1fx2y             0.278218       0.185057
                         10       1    1fx2z             0.278218       0.185057
                         10       1    1fxy2             0.278218       0.185057
                         10       1    1fxyz             0.278218       0.320529
                         10       1    1fxz2             0.278218       0.185057
                         10       1    1fy3              0.278218       0.082760
                         10       1    1fy2z             0.278218       0.185057
                         10       1    1fyz2             0.278218       0.185057
                         10       1    1fz3              0.278218       0.082760

                         11       1    1dx2              0.319410       0.223367
                         11       1    1dxy              0.319410       0.386883
                         11       1    1dxz              0.319410       0.386883
                         11       1    1dy2              0.319410       0.223367
                         11       1    1dyz              0.319410       0.386883
                         11       1    1dz2              0.319410       0.223367

                         12       1    1px               0.320945       0.344333
                         12       1    1py               0.320945       0.344333
                         12       1    1pz               0.320945       0.344333

                         13       1    1hx5              0.360425       0.026915
                         13       1    1hx4y             0.360425       0.080745
                         13       1    1hx4z             0.360425       0.080745
                         13       1    1hx3y2            0.360425       0.123340
                         13       1    1hx3yz            0.360425       0.213630
                         13       1    1hx3z2            0.360425       0.123340
                         13       1    1hx2y3            0.360425       0.123340
                         13       1    1hx2y2z           0.360425       0.275796
                         13       1    1hx2yz2           0.360425       0.275796
                         13       1    1hx2z3            0.360425       0.123340
                         13       1    1hxy4             0.360425       0.080745
                         13       1    1hxy3z            0.360425       0.213630
                         13       1    1hxy2z2           0.360425       0.275796
                         13       1    1hxyz3            0.360425       0.213630
                         13       1    1hxz4             0.360425       0.080745
                         13       1    1hy5              0.360425       0.026915
                         13       1    1hy4z             0.360425       0.080745
                         13       1    1hy3z2            0.360425       0.123340
                         13       1    1hy2z3            0.360425       0.123340
                         13       1    1hyz4             0.360425       0.080745
                         13       1    1hz5              0.360425       0.026915

                         14       1    1gx4              0.368941       0.071708
                         14       1    1gx3y             0.368941       0.189721
                         14       1    1gx3z             0.368941       0.189721
                         14       1    1gx2y2            0.368941       0.244929
                         14       1    1gx2yz            0.368941       0.424230
                         14       1    1gx2z2            0.368941       0.244929
                         14       1    1gxy3             0.368941       0.189721
                         14       1    1gxy2z            0.368941       0.424230
                         14       1    1gxyz2            0.368941       0.424230
                         14       1    1gxz3             0.368941       0.189721
                         14       1    1gy4              0.368941       0.071708
                         14       1    1gy3z             0.368941       0.189721
                         14       1    1gy2z2            0.368941       0.244929
                         14       1    1gyz3             0.368941       0.189721
                         14       1    1gz4              0.368941       0.071708

                         15       1    1s                0.431825       0.379657

                         16       1    1fx3              0.439091       0.231048
                         16       1    1fx2y             0.439091       0.516639
                         16       1    1fx2z             0.439091       0.516639
                         16       1    1fxy2             0.439091       0.516639
                         16       1    1fxyz             0.439091       0.894845
                         16       1    1fxz2             0.439091       0.516639
                         16       1    1fy3              0.439091       0.231048
                         16       1    1fy2z             0.439091       0.516639
                         16       1    1fyz2             0.439091       0.516639
                         16       1    1fz3              0.439091       0.231048

                         17       1    1dx2              0.484888       0.463748
                         17       1    1dxy              0.484888       0.803235
                         17       1    1dxz              0.484888       0.803235
                         17       1    1dy2              0.484888       0.463748
                         17       1    1dyz              0.484888       0.803235
                         17       1    1dz2              0.484888       0.463748

                         18       1    1px               0.540931       0.661253
                         18       1    1py               0.540931       0.661253
                         18       1    1pz               0.540931       0.661253

                         19       1    1ix6              0.599455       0.065655
                         19       1    1ix5y             0.599455       0.217752
                         19       1    1ix5z             0.599455       0.217752
                         19       1    1ix4y2            0.599455       0.377157
                         19       1    1ix4yz            0.599455       0.653255
                         19       1    1ix4z2            0.599455       0.377157
                         19       1    1ix3y3            0.599455       0.446258
                         19       1    1ix3y2z           0.599455       0.997863
                         19       1    1ix3yz2           0.599455       0.997863
                         19       1    1ix3z3            0.599455       0.446258
                         19       1    1ix2y4            0.599455       0.377157
                         19       1    1ix2y3z           0.599455       0.997863
                         19       1    1ix2y2z2          0.599455       1.288236
                         19       1    1ix2yz3           0.599455       0.997863
                         19       1    1ix2z4            0.599455       0.377157
                         19       1    1ixy5             0.599455       0.217752
                         19       1    1ixy4z            0.599455       0.653255
                         19       1    1ixy3z2           0.599455       0.997863
                         19       1    1ixy2z3           0.599455       0.997863
                         19       1    1ixyz4            0.599455       0.653255
                         19       1    1ixz5             0.599455       0.217752
                         19       1    1iy6              0.599455       0.065655
                         19       1    1iy5z             0.599455       0.217752
                         19       1    1iy4z2            0.599455       0.377157
                         19       1    1iy3z3            0.599455       0.446258
                         19       1    1iy2z4            0.599455       0.377157
                         19       1    1iyz5             0.599455       0.217752
                         19       1    1iz6              0.599455       0.065655

                         20       1    1hx5              0.613491       0.151608
                         20       1    1hx4y             0.613491       0.454823
                         20       1    1hx4z             0.613491       0.454823
                         20       1    1hx3y2            0.613491       0.694753
                         20       1    1hx3yz            0.613491       1.203348
                         20       1    1hx3z2            0.613491       0.694753
                         20       1    1hx2y3            0.613491       0.694753
                         20       1    1hx2y2z           0.613491       1.553515
[...]
 Comput. Phys. Commun. 187, 120-129 (2015).
 Enabling simulation at the fifth rung of DFT: Large scale RPA calculations with 
 excellent time to solution.
 https://doi.org/10.1016/j.cpc.2014.10.021

 J. Hutter, M. Iannuzzi, F. Schiffmann, J. VandeVondele.
 WIREs Comput Mol Sci. 4, 15-25 (2014).
 CP2K: atomistic simulations of condensed matter systems.
 https://doi.org/10.1002/wcms.1159

 U. Borstnik, J. VandeVondele, V. Weber, J. Hutter.
 Parallel Comput. 40, 47-58 (2014).
 Sparse matrix multiplication: The distributed block-compressed sparse row 
 library.
 https://doi.org/10.1016/j.parco.2014.03.012

 M. Del Ben, J. Hutter, J. VandeVondele.
 J. Chem. Theory Comput. 9, 2654-2671 (2013).
 Electron Correlation in the Condensed Phase from a Resolution of Identity 
 Approach Based on the Gaussian and Plane Waves Scheme.
 https://doi.org/10.1021/ct4002202

 M. Del Ben, J. Hutter, J. VandeVondele.
 J. Chem. Theory Comput. 8, 4177-4188 (2012).
 Second-Order Moller-Plesset Perturbation Theory in the Condensed Phase: An 
 Efficient and Massively Parallel Gaussian and Plane Waves Approach.
 https://doi.org/10.1021/ct300531w

 M. Guidon, J. Hutter, J. VandeVondele.
 J. Chem. Theory Comput. 5, 3010-3021 (2009).
 Robust Periodic Hartree-Fock Exchange for Large-Scale Simulations Using 
 Gaussian Basis Sets.
 https://doi.org/10.1021/ct900494g

 M. Guidon, F. Schiffmann, J. Hutter, J. VandeVondele.
 J. Chem. Phys. 128, 214104 (2008).
 Ab initio molecular dynamics using hybrid density functionals.
 https://doi.org/10.1063/1.2931945

 L. Genovese, T. Deutsch, S. Goedecker.
 J. Chem. Phys. 127, 054704 (2007).
 Efficient and accurate three-dimensional Poisson solver for surface problems.
 https://doi.org/10.1063/1.2754685

 J. VandeVondele, J. Hutter.
 J. Chem. Phys. 127, 114105 (2007).
 Gaussian basis sets for accurate calculations on molecular systems in gas and 
 condensed phases.
 https://doi.org/10.1063/1.2770708

 L. Genovese, T. Deutsch, A. Neelov, S. Goedecker, G. Beylkin.
 J. Chem. Phys. 125, 074105 (2006).
 Efficient solution of Poisson's equation with free boundary conditions.
 https://doi.org/10.1063/1.2335442

 M. Frigo, S. G. Johnson.
 Proc. IEEE 93, 216-231 (2005).
 The design and implementation of FFTW3.
 https://doi.org/10.1109/JPROC.2004.840301

 M. Krack, M. Parrinello.
 Phys. Chem. Chem. Phys. 2, 2105-2112 (2000).
 All-electron ab-initio molecular dynamics.
 https://doi.org/10.1039/b001167n

 G. Lippert, J. Hutter, M. Parrinello.
 Theor. Chem. Acc. 103, 124-140 (1999).
 The Gaussian and augmented-plane-wave density functional method for ab initio 
 molecular dynamics simulations.
 https://doi.org/10.1007/s002140050523

 J. P. Perdew, K. Burke, M. Ernzerhof.
 Phys. Rev. Lett. 77, 3865-3868 (1996).
 Generalized gradient approximation made simple.
 https://doi.org/10.1103/PhysRevLett.77.3865


 -------------------------------------------------------------------------------
 -                                                                             -
 -                                T I M I N G                                  -
 -                                                                             -
 -------------------------------------------------------------------------------
 SUBROUTINE                       CALLS  ASD         SELF TIME        TOTAL TIME
                                MAXIMUM       AVERAGE  MAXIMUM  AVERAGE  MAXIMUM
 CP2K                                 1  1.0    0.040    0.076  614.893  614.896
 qs_energies                          1  2.0    0.001    0.001  612.759  613.035
 scf_env_do_scf                       1  3.0    0.000    0.000  600.114  600.123
 scf_env_do_scf_inner_loop           60  4.0    0.002    0.004  600.114  600.122
 qs_ks_build_kohn_sham_matrix        61  7.0    0.009    0.010  580.548  580.611
 qs_ks_update_qs_env                 60  5.0    0.000    0.001  579.329  579.392
 rebuild_ks_matrix                   60  6.0    0.000    0.000  579.319  579.382
 hfx_ks_matrix                       61  8.0    0.003    0.003  506.752  507.069
 integrate_four_center               61  9.0    2.853    4.156  506.748  507.065
 mp_sync                            731  9.4  436.248  441.204  436.248  441.204
 integrate_four_center_main          61 10.0    1.688  313.168    3.530  440.217
 integrate_four_center_bin         4968 11.0    1.842  390.590    1.842  390.590
 calc_screening_functions             1 10.0   53.110   54.798   55.846   57.532
 fft_wrap_pw1pw2                   1272  9.9    0.021    0.025   19.543   20.075
 mp_sum_d                          1892  6.2   15.704   18.249   15.704   18.249
 fft_wrap_pw1pw2_250                906 11.1    0.627    0.668   17.644   18.218
 prepare_gapw_den                    61  8.0    0.001    0.002   18.065   18.114
 fft3d_ps                          1272 11.9    5.983    6.452   16.927   17.576
 calculate_rho_atom                 122  9.0    1.829   14.836    1.829   14.837
 pw_poisson_solve                    61  8.0    0.365    0.410   14.776   14.786
 qs_rho_update_rho_low               61  5.0    0.001    0.001   14.191   14.196
 calculate_vxc_atom                  61  8.0    0.021    0.886   14.021   14.021
 calculate_rho_elec                  61  6.0    0.133    0.142   13.988   13.989
 mp_sum_dv                        12370 12.4   13.142   13.248   13.142   13.248
 gaVxcgb_GC                         120  9.0    0.060   13.049    0.060   13.049
 sum_up_and_integrate                61  8.0    0.001    0.001   11.770   12.448
 integrate_v_rspace                  61  9.0    0.001    0.002   11.743   12.429
 mp2_main                             1  3.0    0.000    0.000   12.020   12.295
 mp_alltoall_z22v                  1272 13.9    9.109   11.609    9.109   11.609
 density_rs2pw                       61  7.0    0.003    0.004   10.039   10.576
 mp2_gpw_main                         1  4.0    0.000    0.001   10.536   10.548
 qs_vxc_create                       61  8.0    0.001    0.001   10.313   10.313
 xc_vxc_pw_create                    60  9.0    0.167    0.193   10.312   10.312
 ps_wavelet_solve                    61  9.0    6.059    8.666    9.857    9.986
 rpa_ri_compute_en                    1  5.0    0.000    0.001    8.744    8.745
 rpa_num_int                          1  6.0    0.001    0.001    8.723    8.724
 xc_pw_derive                       360 11.0    0.003    0.004    7.582    8.196
 transfer_rs2pw                     306  8.4    0.007    0.011    7.513    8.048
 mp_alltoall_d54                     61 10.0    3.057    7.995    3.057    7.995
 compute_GW_self_energy             100  7.0    0.001    0.001    7.392    7.523
 mp_alltoall_d11v                  1096  9.4    6.725    7.408    6.725    7.408
 compute_GW_self_energy_deep        100  8.0    4.266    4.379    7.243    7.375
 yz_to_x                            485 13.2    0.431    0.523    5.012    6.882
 mp_waitany                       16188 11.5    5.904    6.499    5.904    6.499
 grid_collocate_task_list            61  7.0    3.641    6.342    3.641    6.342
 potential_pw2rs                     61 10.0    0.013    0.017    5.631    6.287
 rs_gather_matrices                  61 10.0    0.006    0.063    6.025    6.112
 grid_integrate_task_list            61 10.0    0.086    6.084    0.086    6.084
 xc_pw_divergence                    60 10.0    0.001    0.002    5.167    5.808
 transfer_rs2pw_250                 123 10.0    1.076    1.184    4.184    5.402
 x_to_yz                            543 12.9    0.619    0.730    4.936    5.332
 transfer_pw2rs                     306 10.6    0.004    0.006    5.198    5.249
 powell_optimize                1935432 11.0    4.809    5.144    4.809    5.144
 xc_rho_set_and_dset_create          60 10.0    0.128    0.157    4.819    5.111
 mp_waitall_1                     63976 12.0    3.962    4.718    3.962    4.718
 gspace_mixing                       59  5.0    0.128    0.137    4.681    4.684
 broyden_mixing                      59  6.0    3.171    3.243    3.288    3.337
 parallel_gemm_fm                   341  8.6    0.001    0.001    3.246    3.295
 parallel_gemm_fm_gemm              341  9.6    0.001    0.001    3.246    3.294
 cp_fm_gemm                         341 10.6    3.245    3.294    3.245    3.294
 calc_pair_dist_radii                 1 10.0    1.029    1.049    3.102    3.253
 mp_sum_l                           841  5.8    1.759    3.136    1.759    3.136
 integrate_four_center_load          61 10.0    0.000    0.001    1.704    3.091
 hfx_load_balance                     1 11.0    0.000    0.000    1.704    3.091
 hfx_load_balance_range               1 12.0    0.000    0.000    1.688    3.075
 put_rho0_on_grid                    61  9.0    0.136    0.150    2.926    2.974
 transfer_pw2rs_250                 123 10.9    0.884    0.988    2.686    2.763
 transfer_rs2pw_90                   61  9.0    0.216    0.269    1.610    2.587
 integrate_vhg0_rspace               61  8.0    0.164    0.199    2.202    2.229
 cp_fm_syevd                         66  7.0    0.000    0.001    2.126    2.130
 qs_scf_new_mos                      60  5.0    0.001    0.001    2.063    2.093
 cp_fm_redistribute_end              66  8.0    1.051    2.027    1.054    2.030
 cp_fm_syevd_base                    66  8.0    0.974    1.949    0.974    1.949
 integrate_four_center_getP          61 10.0    0.022    0.025    1.928    1.948
 integrate_four_center_dist_KS       61 10.0    0.026    0.029    1.911    1.916
 mp_isendrecv_dv                  52460 12.0    0.809    1.883    0.809    1.883
 mp2_ri_gpw_compute_in                1  5.0    0.001    0.001    1.771    1.771
 mp2_ri_gpw_compute_in_loop           1  6.0    0.000    0.000    1.754    1.754
 contract_B_L                         4  7.0    0.002    0.003    1.465    1.740
 fft_wrap_pw1pw2_90                 122 10.5    0.020    0.026    1.089    1.711
 eigensolver_symm                    61  6.0    0.002    0.002    1.510    1.514
 mp_cart_create                     349 10.5    1.171    1.447    1.171    1.447
 mp_alltoall_d45                     62 10.0    0.736    1.443    0.736    1.443
 dbt_pgrid_create_expert             84 10.8    0.000    0.000    1.145    1.421
 mp2_eri_3c_integrate                 1  7.0    0.001    0.001    0.272    1.401
 integrate_set_3c                   216  8.0    0.252    1.310    0.272    1.399
 Vh_1c_gg_integrals                  61  8.0    0.011    0.928    0.977    1.388
 create_qs_kind_set                   1  2.0    0.000    0.000    1.362    1.363
 read_qs_kind                         2  3.0    0.749    0.765    1.362    1.363
 transfer_rs2pw_30                   61  9.0    0.574    0.603    1.308    1.324
 transfer_pw2rs_30                   61 12.0    0.554    0.608    1.240    1.269
 compute_vec_Sigma_x_minus_vxc_       1  4.0    0.000    0.000    1.242    1.242
 xc_functional_eval                 300 11.0    0.001    0.001    0.967    1.189
 pbe_lda_eval                       300 12.0    0.967    1.189    0.967    1.189
 cp2k_distribution_to_z_slices       61  9.0    0.280    0.305    0.727    1.111
 mp_sendrecv_dv                   26230 10.0    0.989    1.029    0.989    1.029
 transfer_pw2rs_90                   61 12.0    0.252    0.275    0.879    0.918
 rs_grid_zero                       307 11.1    0.857    0.886    0.857    0.886
 pw_scatter_p                       665 12.1    0.851    0.884    0.851    0.884
 start_bse_calculation                1  7.0    0.000    0.001    0.808    0.808
 pw_gather_p                        607 11.8    0.689    0.791    0.689    0.791
 fft_wrap_pw1pw2_30                 122 10.5    0.004    0.004    0.384    0.713
 mp_alltoall_z11v                   244 13.5    0.451    0.674    0.451    0.674
 pw_derive                          543 11.3    0.582    0.635    0.582    0.635
 parser_read_line                158532  4.0    0.056    0.061    0.613    0.619
 mp_sum_dm                          431  7.6    0.541    0.599    0.541    0.599
 pw_poisson_rebuild                  61  9.0    0.000    0.000    0.554    0.585
 ps_wavelet_create                    1 10.0    0.000    0.000    0.554    0.585
 RS_z_slice_distribution              1 11.0    0.499    0.549    0.554    0.585
 xz_to_yz                           122 11.0    0.007    0.009    0.357    0.569
 mp_max_i                           577  2.8    0.210    0.568    0.210    0.568
 parser_read_line_low               170  5.0    0.051    0.254    0.557    0.563
 pw_integral_ab_c1d_c1d_gs           61  9.0    0.197    0.200    0.295    0.562
 broadcast_input_information        170  6.0    0.128    0.141    0.506    0.514
 cube_transpose_2                   122 11.0    0.002    0.003    0.198    0.514
 pw_copy                            910 10.6    0.436    0.472    0.436    0.472
 mp_sum_i                            21  9.7    0.277    0.455    0.277    0.455
 restraint_control                    1  2.0    0.000    0.000    0.276    0.454
 mp2_main_alloc_hfx                   1  4.0    0.178    0.454    0.178    0.454
 fft_wrap_pw1pw2_10                 122 10.5    0.001    0.001    0.405    0.449
 transfer_rs2pw_10                   61  9.0    0.148    0.156    0.403    0.410
 transfer_pw2rs_10                   61 12.0    0.146    0.170    0.389    0.401
 diagonalize_C                        1  8.0    0.000    0.000    0.394    0.394
 calculate_dm_sparse                 60  6.0    0.000    0.001    0.358    0.376
 rpa_num_int_RPA_matrix_operati     100  7.0    0.001    0.002    0.374    0.376
 cp_dbcsr_plus_fm_fm_t               60  7.0    0.001    0.001    0.357    0.374
 pw_poisson_set                      62  8.9    0.002    0.002    0.363    0.374
 cp_fm_power                          2  7.5    0.003    0.006    0.368    0.369
 mp_isend_dm3                      2940 11.5    0.162    0.360    0.162    0.360
 qs_init_subsys                       1  2.0    0.012    0.015    0.359    0.360
 create_hermitian_form_of_ABBA        1  8.0    0.000    0.000    0.357    0.358
 mp_irecv_dm3                      2940 11.5    0.142    0.355    0.142    0.355
 update_ks_atom                      61  8.0    0.009    0.081    0.290    0.351
 init_scf_run                         1  3.0    0.000    0.000    0.350    0.350
 mp_bcast_dm                        244  9.0    0.280    0.338    0.280    0.338
 mp_rank_compare                   1272 12.9    0.302    0.308    0.302    0.308
 dbt_total                            8  8.0    0.000    0.000    0.301    0.301
 calculate_rho0_atom                122  9.0    0.244    0.295    0.244    0.295
 scf_env_initial_rho_setup            1  4.0    0.000    0.000    0.289    0.289
 dbt_contract                         4  9.0    0.001    0.001    0.286    0.287
 qs_env_setup                         1  3.0    0.000    0.000    0.262    0.280
 qs_env_rebuild_pw_env                2  3.5    0.000    0.000    0.261    0.279
 pw_env_rebuild                       1  5.0    0.001    0.001    0.261    0.278
 copy_dbcsr_to_fm                    79  6.4    0.002    0.002    0.238    0.273
 pw_copy_to_array                   607 11.8    0.230    0.271    0.230    0.271
 mp_bcast_i_src                     680  7.0    0.190    0.270    0.190    0.270
 dbcsr_multiply_generic              81  8.1    0.004    0.005    0.239    0.255
 dbcsr_complete_redistribute        203  8.4    0.010    0.019    0.235    0.250
 dbt_tas_multiply                     8 11.5    0.000    0.000    0.246    0.246
 dbt_tas_total                        8 12.5    0.002    0.004    0.244    0.244
 pw_axpy                            605  9.3    0.197    0.227    0.197    0.227
 calc_mat_Q                         100  8.0    0.000    0.000    0.222    0.225
 pw_copy_from_array                 665 12.1    0.172    0.217    0.172    0.217
 contract_S_to_Q                    100  9.0    0.000    0.001    0.211    0.215
 mp_bcast_am_src                    170  7.0    0.166    0.197    0.184    0.210
 calculate_rho_atom_coeff            61  6.0    0.016    0.079    0.202    0.207
 mp_isend_dv                      19266 11.8    0.129    0.202    0.129    0.202
 qs_energies_init_hamiltonians        1  3.0    0.000    0.000    0.202    0.202
 build_core_hamiltonian_matrix        1  4.0    0.000    0.000    0.189    0.189
 overlap_condnum                      1  5.0    0.000    0.000    0.184    0.187
 rs_scatter_matrices                 61  7.0    0.001    0.011    0.040    0.168
 dbcsr_desymmetrize_deep             81  7.4    0.003    0.005    0.141    0.164
 mp_alltoall_i22                    284  9.1    0.124    0.154    0.124    0.154
 pw_grid_setup                        4  6.0    0.000    0.000    0.134    0.152
 pw_grid_setup_internal               4  7.0    0.003    0.004    0.134    0.152
 copy_fm_to_dbcsr                   124  8.1    0.001    0.001    0.141    0.148
 cp_fm_cholesky_invert              101  8.0    0.134    0.140    0.134    0.140
 compute_Erpa_by_freq_int           100  8.0    0.001    0.001    0.139    0.140
 cp_fm_cholesky_decompose           102  9.0    0.137    0.140    0.137    0.140
 pw_zero                            362 10.3    0.118    0.133    0.118    0.133
 yz_to_xz                           122 14.0    0.011    0.013    0.114    0.128
 dbt_tas_dbm                          8 13.5    0.000    0.000    0.122    0.122
 arnoldi_conjugate_gradient           5  6.0    0.003    0.004    0.120    0.120
 compute_max_radius                   1  6.0    0.115    0.118    0.115    0.118
 offload_free_buffer                 69  8.3    0.099    0.116    0.099    0.116
 multiply_cannon                     81  9.1    0.010    0.010    0.099    0.113
 dbm_multiply                         8 15.5    0.086    0.107    0.086    0.107
 cp_fm_to_fm_submat_general         112 10.1    0.093    0.103    0.093    0.103
 cp_fm_redistribute_start            66  8.0    0.063    0.065    0.097    0.101
 dbt_tas_estimate_result_nze          4 12.0    0.001    0.001    0.096    0.096
 make_m2s                           162  9.1    0.004    0.005    0.087    0.096
 mp_alltoall_i11v                   690  9.3    0.086    0.090    0.086    0.090
 abc_contract                       216  9.0    0.019    0.090    0.019    0.090
 init_rho_atom                        1  3.0    0.001    0.001    0.074    0.089
 dbt_tas_mm_1N                        4 14.5    0.000    0.000    0.066    0.086
 multiply_cannon_loop                81 10.1    0.015    0.016    0.068    0.083
 dbcsr_sym_matrix_vector_mult       394  7.0    0.006    0.007    0.040    0.081
 create_harmonics_atom                2  4.0    0.063    0.076    0.063    0.076
 vxc_of_r_new                       240  9.0    0.000    0.011    0.000    0.075
 pw_grid_sort                         4  8.0    0.043    0.046    0.067    0.070
 postprocess_bse                      1  9.0    0.000    0.000    0.068    0.068
 scale_and_distribute               122 10.0    0.059    0.065    0.059    0.065
 write_mo_set_to_restart             60  5.0    0.001    0.046    0.047    0.064
 write_mo_set_low                     3  6.0    0.000    0.000    0.046    0.062
 cp_fm_write_unformatted              3  7.0    0.046    0.046    0.046    0.062
 -------------------------------------------------------------------------------

 The number of warnings for this run is : 3
 
 -------------------------------------------------------------------------------
  **** **** ******  **  PROGRAM ENDED AT                 2025-04-11 17:50:14.806
 ***** ** ***  *** **   PROGRAM RAN ON                              i03r01c05s07
 **    ****   ******    PROGRAM RAN BY                                   di38fab
 ***** **    ** ** **   PROGRAM PROCESS ID                                 28345
  **** **  *******  **  PROGRAM STOPPED IN /hppfs/scratch/04/di38fab/07_MOL_non_
                                           aug/05_MOL_non_aug/05_MOL/W4-11+ALK/a
                                           lf/cc-pV5Z/GW+BSE
