 DBCSR| CPU Multiplication driver                                           XSMM (U)
 DBCSR| Multrec recursion limit                                              512 (U)
 DBCSR| Multiplication stack size                                           1000 (D)
 DBCSR| Maximum elements for images                                    UNLIMITED (U)
 DBCSR| Multiplicative factor virtual images                                   1 (U)
 DBCSR| Use multiplication densification                                       T (D)
 DBCSR| Multiplication size stacks                                             3 (U)
 DBCSR| Use memory pool for CPU allocation                                     F (U)
 DBCSR| Number of 3D layers                                               SINGLE (U)
 DBCSR| Use MPI memory allocation                                              F (U)
 DBCSR| Use RMA algorithm                                                      F (U)
 DBCSR| Use Communication thread                                               T (U)
 DBCSR| Communication thread load                                             60 (D)
 DBCSR| MPI: My process id                                                     0
 DBCSR| MPI: Number of processes                                              32
 DBCSR| OMP: Current number of threads                                         8
 DBCSR| OMP: Max number of threads                                             8
 DBCSR| Split modifier for TAS multiplication algorithm                  1.0E+00 (U)


  **** **** ******  **  PROGRAM STARTED AT               2025-06-23 11:59:48.280
 ***** ** ***  *** **   PROGRAM STARTED ON                              n2cn0173
 **    ****   ******    PROGRAM STARTED BY                              metdyn02
 ***** **    ** ** **   PROGRAM PROCESS ID                                799694
  **** **  *******  **  PROGRAM STARTED IN /scratch/hpc-prf-metdyn/metdyn02_Remi
                                           /10_MOL/05_MOL/aUKBqsEOTmq69kFe5R_nOg
                                           /5k_set_final_qzvp/WEHYAK/mini-SZV/TD
                                           DFT/1e-4

 CP2K| version string:                 CP2K version 2025.1 (Development Version)
 CP2K| source code revision number:                                  git:32ddf85
 CP2K| cp2kflags: omp libint fftw3 libxc libgrpp elpa parallel scalapack mpi_f08
 CP2K|             cosma xsmm plumed2 spglib libvori libbqb libvdwxc hdf5
 CP2K| is freely available from                            https://www.cp2k.org/
 CP2K| Program compiled at                         Mon May 19 11:32:37 CEST 2025
 CP2K| Program compiled on                                              n2login1
 CP2K| Program compiled for                                                local
 CP2K| Data directory path    /opt/software/pc2/EB-SW/software/CP2K/2024.1-foss-
 CP2K| Input file name                                                    GW.inp

 GLOBAL| Force Environment number                                              1
 GLOBAL| Basis set file name            /scratch/hpc-prf-metdyn/metdyn02_Remi/BA
 GLOBAL| Potential file name            /pc2/groups/hpc-prf-metdyn/metdyn02_Remi
 GLOBAL| MM Potential file name                                     MM_POTENTIAL
 GLOBAL| Coordinate file name                                      __STD_INPUT__
 GLOBAL| Method name                                                        CP2K
 GLOBAL| Project name                                                       MoS2
 GLOBAL| Run type                                                         ENERGY
 GLOBAL| FFT library                                                       FFTW3
 GLOBAL| Diagonalization library                                            ELPA
 GLOBAL| Cholesky decomposition library                                ScaLAPACK
 GLOBAL| DGEMM library                                                      BLAS
 GLOBAL| Minimum number of eigenvectors for ELPA usage                        16
 GLOBAL| Orthonormality check for eigenvectors                          DISABLED
 GLOBAL| Matrix multiplication library                                     COSMA
 GLOBAL| All-to-all communication in single precision                          F
 GLOBAL| FFTs using library dependent lengths                                  F
 GLOBAL| Grid backend                                                       AUTO
 GLOBAL| Global print level                                               MEDIUM
 GLOBAL| MPI I/O enabled                                                       T
 GLOBAL| Total number of message passing processes                            32
 GLOBAL| Number of threads for this process                                    8
 GLOBAL| This output is from process                                           0
 GLOBAL| OpenMP stack size per thread (OMP_STACKSIZE)                    default
 GLOBAL| CPU model name                          AMD EPYC 7763 64-Core Processor
 GLOBAL| CPUID                                                              1002

 MEMORY| system memory details [Kb]
 MEMORY|                        rank 0           min           max       average
 MEMORY| MemTotal            263897584     263897540     263897612     263897579
 MEMORY| MemFree             250841776     246808992     252187264     250588631
 MEMORY| Buffers                125384         24724        125936         81370
 MEMORY| Cached                7102544       6560224      11723024       7885691
 MEMORY| Slab                  2326052       1584892       2351676       1982038
 MEMORY| SReclaimable          1003896        346540       1003896        719340
 MEMORY| MemLikelyFree       259073600     259073600     259391552     259275033


 *** Fundamental physical constants (SI units) ***

 *** Literature: B. J. Mohr and B. N. Taylor,
 ***             CODATA recommended values of the fundamental physical
 ***             constants: 2006, Web Version 5.1
 ***             http://physics.nist.gov/constants

 Speed of light in vacuum [m/s]                             2.99792458000000E+08
 Magnetic constant or permeability of vacuum [N/A**2]       1.25663706143592E-06
 Electric constant or permittivity of vacuum [F/m]          8.85418781762039E-12
 Planck constant (h) [J*s]                                  6.62606896000000E-34
 Planck constant (h-bar) [J*s]                              1.05457162825177E-34
 Elementary charge [C]                                      1.60217648700000E-19
 Electron mass [kg]                                         9.10938215000000E-31
 Electron g factor [ ]                                     -2.00231930436220E+00
 Proton mass [kg]                                           1.67262163700000E-27
 Fine-structure constant                                    7.29735253760000E-03
 Rydberg constant [1/m]                                     1.09737315685270E+07
 Avogadro constant [1/mol]                                  6.02214179000000E+23
 Boltzmann constant [J/K]                                   1.38065040000000E-23
 Atomic mass unit [kg]                                      1.66053878200000E-27
 Bohr radius [m]                                            5.29177208590000E-11

 *** Conversion factors ***

 [u] -> [a.u.]                                              1.82288848426455E+03
 [Angstrom] -> [Bohr] = [a.u.]                              1.88972613288564E+00
 [a.u.] = [Bohr] -> [Angstrom]                              5.29177208590000E-01
 [a.u.] -> [s]                                              2.41888432650478E-17
 [a.u.] -> [fs]                                             2.41888432650478E-02
 [a.u.] -> [J]                                              4.35974393937059E-18
 [a.u.] -> [N]                                              8.23872205491840E-08
 [a.u.] -> [K]                                              3.15774647902944E+05
 [a.u.] -> [kJ/mol]                                         2.62549961709828E+03
 [a.u.] -> [kcal/mol]                                       6.27509468713739E+02
 [a.u.] -> [Pa]                                             2.94210107994716E+13
 [a.u.] -> [bar]                                            2.94210107994716E+08
 [a.u.] -> [atm]                                            2.90362800883016E+08
 [a.u.] -> [eV]                                             2.72113838565563E+01
 [a.u.] -> [Hz]                                             6.57968392072181E+15
 [a.u.] -> [1/cm] (wave numbers)                            2.19474631370540E+05
 [a.u./Bohr**2] -> [1/cm]                                   5.14048714338585E+03
 

 CELL_TOP| Volume [angstrom^3]:                                     27000.000000
 CELL_TOP| Vector a [angstrom    30.000     0.000     0.000   |a| =    30.000000
 CELL_TOP| Vector b [angstrom     0.000    30.000     0.000   |b| =    30.000000
 CELL_TOP| Vector c [angstrom     0.000     0.000    30.000   |c| =    30.000000
 CELL_TOP| Angle (b,c), alpha [degree]:                                90.000000
 CELL_TOP| Angle (a,c), beta  [degree]:                                90.000000
 CELL_TOP| Angle (a,b), gamma [degree]:                                90.000000
 CELL_TOP| Numerically orthorhombic:                                         YES
 CELL_TOP| Periodicity                                                      NONE

 GENERATE|  Preliminary Number of Bonds generated:                             0
 GENERATE|  Achieved consistency in connectivity generation.

 CELL| Volume [angstrom^3]:                                         27000.000000
 CELL| Vector a [angstrom]:      30.000     0.000     0.000   |a| =    30.000000
 CELL| Vector b [angstrom]:       0.000    30.000     0.000   |b| =    30.000000
 CELL| Vector c [angstrom]:       0.000     0.000    30.000   |c| =    30.000000
 CELL| Angle (b,c), alpha [degree]:                                    90.000000
 CELL| Angle (a,c), beta  [degree]:                                    90.000000
 CELL| Angle (a,b), gamma [degree]:                                    90.000000
 CELL| Numerically orthorhombic:                                             YES
 CELL| Periodicity                                                          NONE

 CELL_REF| Volume [angstrom^3]:                                     27000.000000
 CELL_REF| Vector a [angstrom    30.000     0.000     0.000   |a| =    30.000000
 CELL_REF| Vector b [angstrom     0.000    30.000     0.000   |b| =    30.000000
 CELL_REF| Vector c [angstrom     0.000     0.000    30.000   |c| =    30.000000
 CELL_REF| Angle (b,c), alpha [degree]:                                90.000000
 CELL_REF| Angle (a,c), beta  [degree]:                                90.000000
 CELL_REF| Angle (a,b), gamma [degree]:                                90.000000
 CELL_REF| Numerically orthorhombic:                                         YES
 CELL_REF| Periodicity                                                      NONE

 *******************************************************************************
 *******************************************************************************
 **                                                                           **
 **     #####                         ##              ##                      **
 **    ##   ##            ##          ##              ##                      **
 **   ##     ##                       ##            ######                    **
 **   ##     ##  ##   ##  ##   #####  ##  ##   ####   ##    #####    #####    **
 **   ##     ##  ##   ##  ##  ##      ## ##   ##      ##   ##   ##  ##   ##   **
 **   ##  ## ##  ##   ##  ##  ##      ####     ###    ##   ######   ######    **
 **    ##  ###   ##   ##  ##  ##      ## ##      ##   ##   ##       ##        **
 **     #######   #####   ##   #####  ##  ##  ####    ##    #####   ##        **
 **           ##                                                    ##        **
 **                                                                           **
 **                                                ... make the atoms dance   **
 **                                                                           **
 **            Copyright (C) by CP2K developers group (2000-2025)             **
 **                      J. Chem. Phys. 152, 194103 (2020)                    **
 **                                                                           **
 *******************************************************************************

 DFT| Spin restricted Kohn-Sham (RKS) calculation                            RKS
 DFT| Multiplicity                                                             1
 DFT| Number of spin states                                                    1
 DFT| Charge                                                                   0
 DFT| Self-interaction correction (SIC)                                       NO
 DFT| Cutoffs: density                                              1.000000E-10
 DFT|          gradient                                             1.000000E-10
 DFT|          tau                                                  1.000000E-10
 DFT|          cutoff_smoothing_range                               0.000000E+00
 DFT| XC density smoothing                                                  NONE
 DFT| XC derivatives                                                          PW

 FUNCTIONAL| PBE:
 FUNCTIONAL| J.P.Perdew, K.Burke, M.Ernzerhof, Phys. Rev. Letter, vol. 77, n 18,
 FUNCTIONAL|  pp. 3865-3868, (1996)sx=0.750sc=1.000{spin unpolarized}           


 QS| Method:                                                                GAPW
 QS| Density plane wave grid type                        NON-SPHERICAL FULLSPACE
 QS| Number of grid levels:                                                    4
 QS| Density cutoff [a.u.]:                                                250.0
 QS| Multi grid cutoff [a.u.]: 1) grid level                               250.0
 QS|                           2) grid level                                83.3
 QS|                           3) grid level                                27.8
 QS|                           4) grid level                                 9.3
 QS| Grid level progression factor:                                          3.0
 QS| Relative density cutoff [a.u.]:                                        50.0
 QS| Interaction thresholds: eps_pgf_orb:                                1.0E-12
 QS|                         eps_filter_matrix:                          0.0E+00
 QS|                         eps_core_charge:                            1.0E-14
 QS|                         eps_rho_gspace:                             1.0E-12
 QS|                         eps_rho_rspace:                             1.0E-12
 QS|                         eps_gvg_rspace:                             1.0E-06
 QS|                         eps_ppl:                                    1.0E-02
 QS|                         eps_ppnl:                                   1.0E-08
 QS| GAPW|      One center basis from orbital basis primitives
 QS| GAPW|                   eps_fit:                                    1.0E-04
 QS| GAPW|                   eps_iso:                                    1.0E-12
 QS| GAPW|                   eps_svd:                                    1.0E-08
 QS| GAPW|                   eps_cpc:                                    1.0E-12
 QS| GAPW|   atom-r-grid: quadrature:                                     GC_LOG
 QS| GAPW|      atom-s-grid:  max l :                                          2
 QS| GAPW|      max_l_rho0 :                                                   2


 ATOMIC KIND INFORMATION

  1. Atomic kind: O                                     Number of atoms:       3

     Orbital Basis Set                                    aug-SZV-MOLOPT-ae-mini

       Number of orbital shell sets:                                           2
       Number of orbital shells:                                               5
       Number of primitive Cartesian functions:                                7
       Number of Cartesian basis functions:                                    9
       Number of spherical basis functions:                                    9
       Norm type:                                                              2

       Normalised Cartesian orbitals:

                        Set   Shell   Orbital            Exponent    Coefficient

                          1       1    1s                0.162491       0.000000
                                                         0.380388       0.241685
                                                         1.169596       0.320234
                                                         5.033151      -0.239413

                          1       2    2s                0.162491       0.289618
                                                         0.380388      -0.257800
                                                         1.169596      -0.000000
                                                         5.033151      -0.000284

                          1       3    2px               0.162491       0.000000
                                                         0.380388       0.166902
                                                         1.169596       1.053568
                                                         5.033151       1.675450
                          1       3    2py               0.162491       0.000000
                                                         0.380388       0.166902
                                                         1.169596       1.053568
                                                         5.033151       1.675450
                          1       3    2pz               0.162491       0.000000
                                                         0.380388       0.166902
                                                         1.169596       1.053568
                                                         5.033151       1.675450

                          1       4    3px               0.162491       0.166510
                                                         0.380388      -0.081234
                                                         1.169596      -0.994066
                                                         5.033151       0.014231
                          1       4    3py               0.162491       0.166510
                                                         0.380388      -0.081234
                                                         1.169596      -0.994066
                                                         5.033151       0.014231
                          1       4    3pz               0.162491       0.166510
                                                         0.380388      -0.081234
                                                         1.169596      -0.994066
                                                         5.033151       0.014231

                          2       1    1s              130.709321       4.251922
                                                        23.808866       4.112298
                                                         6.443608       1.281622

     RI Auxiliary Basis Set             RI_aug-SZV-MOLOPT-ae-mini_N_RI_028_s_p_d

       Number of orbital shell sets:                                          10
       Number of orbital shells:                                              10
       Number of primitive Cartesian functions:                               10
       Number of Cartesian basis functions:                                   31
       Number of spherical basis functions:                                   28
       Norm type:                                                              2

       Normalised Cartesian orbitals:

                        Set   Shell   Orbital            Exponent    Coefficient

                          1       1    1s                0.357489       0.329502

                          2       1    5px               0.409748       0.467289
                          2       1    5py               0.409748       0.467289
                          2       1    5pz               0.409748       0.467289

                          3       1    8dx2              0.443879       0.397304
                          3       1    8dxy              0.443879       0.688150
                          3       1    8dxz              0.443879       0.688150
                          3       1    8dy2              0.443879       0.397304
                          3       1    8dyz              0.443879       0.688150
                          3       1    8dz2              0.443879       0.397304

                          4       1    2s                1.054753       0.741777

                          5       1    6px               1.767021       2.903971
                          5       1    6py               1.767021       2.903971
                          5       1    6pz               1.767021       2.903971

                          6       1    9dx2              2.138835       6.226152
                          6       1    9dxy              2.138835      10.784012
                          6       1    9dxz              2.138835      10.784012
                          6       1    9dy2              2.138835       6.226152
                          6       1    9dyz              2.138835      10.784012
                          6       1    9dz2              2.138835       6.226152

                          7       1    3s                3.026195       1.635245

                          8       1   10dx2              8.012449      62.805651
                          8       1   10dxy              8.012449     108.782579
                          8       1   10dxz              8.012449     108.782579
                          8       1   10dy2              8.012449      62.805651
                          8       1   10dyz              8.012449     108.782579
                          8       1   10dz2              8.012449      62.805651

                          9       1    4s                8.361610       3.504512

                         10       1    7px               8.422062      20.450934
                         10       1    7py               8.422062      20.450934
                         10       1    7pz               8.422062      20.450934

       Atomic covalent radius [Angstrom]:                                  0.730

       Atomic van der Waals radius [Angstrom]:                             1.520

     The atoms of this atomic kind are PAW atoms (GAPW):
       Hard Gaussian function radius:                                      1.512
       Rho0 radius:                                                        1.512
       Maximum GTO radius used for PAW projector construction:            24.566

     GAPW Soft Basis Set                             aug-SZV-MOLOPT-ae-mini_soft

       Number of orbital shell sets:                                           2
       Number of orbital shells:                                               5
       Number of primitive Cartesian functions:                                3
       Number of Cartesian basis functions:                                    9
       Number of spherical basis functions:                                    9
       Norm type:                                                              2

       Normalised Cartesian orbitals:

                        Set   Shell   Orbital            Exponent    Coefficient

                          1       1    1s                0.162491       0.000000
                                                         0.380388       0.241685
                                                         1.169596       0.320234

                          1       2    2s                0.162491       0.289618
                                                         0.380388      -0.257800
                                                         1.169596      -0.000000

                          1       3    2px               0.162491       0.000000
                                                         0.380388       0.166902
                                                         1.169596       1.053568
                          1       3    2py               0.162491       0.000000
                                                         0.380388       0.166902
                                                         1.169596       1.053568
                          1       3    2pz               0.162491       0.000000
                                                         0.380388       0.166902
                                                         1.169596       1.053568

                          1       4    3px               0.162491       0.166510
                                                         0.380388      -0.081234
                                                         1.169596      -0.994066
                          1       4    3py               0.162491       0.166510
                                                         0.380388      -0.081234
                                                         1.169596      -0.994066
                          1       4    3pz               0.162491       0.166510
                                                         0.380388      -0.081234
                                                         1.169596      -0.994066

                          2       1    1s         

     AE Potential information for                                            ALL

       Description:                                       All-electron potential
                                          Krack, Parrinello, PCCP 2, 2105 (2000)

       Gaussian exponent of the core charge distribution:               8.154466
       Electronic configuration (s p d ...):                           4   4   0

  2. Atomic kind: N                                     Number of atoms:       1

     Orbital Basis Set                                    aug-SZV-MOLOPT-ae-mini

       Number of orbital shell sets:                                           2
       Number of orbital shells:                                               5
       Number of primitive Cartesian functions:                                7
       Number of Cartesian basis functions:                                    9
       Number of spherical basis functions:                                    9
       Norm type:                                                              2

       Normalised Cartesian orbitals:

                        Set   Shell   Orbital            Exponent    Coefficient

                          1       1    1s                0.112012       0.000000
                                                         0.285714       0.194997
                                                         0.878496       0.258372
                                                         3.780455      -0.193164

                          1       2    2s                0.112012      -0.247059
                                                         0.285714       0.355178
                                                         0.878496       0.105643
                                                         3.780455      -0.000189

                          1       3    2px               0.112012       0.000000
                                                         0.285714       0.116706
                                                         0.878496       0.736703
                                                         3.780455       1.171552
                          1       3    2py               0.112012       0.000000
                                                         0.285714       0.116706
                                                         0.878496       0.736703
                                                         3.780455       1.171552
                          1       3    2pz               0.112012       0.000000
                                                         0.285714       0.116706
                                                         0.878496       0.736703
                                                         3.780455       1.171552

                          1       4    3px               0.112012       0.096580
                                                         0.285714      -0.017996
                                                         0.878496       0.000162
                                                         3.780455       0.000013
                          1       4    3py               0.112012       0.096580
                                                         0.285714      -0.017996
                                                         0.878496       0.000162
                                                         3.780455       0.000013
                          1       4    3pz               0.112012       0.096580
                                                         0.285714      -0.017996
                                                         0.878496       0.000162
                                                         3.780455       0.000013

                          2       1    1s               99.106168       3.454863
                                                        18.052312       3.341413
                                                         4.885660       1.041372

     RI Auxiliary Basis Set             RI_aug-SZV-MOLOPT-ae-mini_N_RI_023_s_p_d

       Number of orbital shell sets:                                           9
       Number of orbital shells:                                               9
       Number of primitive Cartesian functions:                                9
       Number of Cartesian basis functions:                                   25
       Number of spherical basis functions:                                   23
       Norm type:                                                              2

       Normalised Cartesian orbitals:

                        Set   Shell   Orbital            Exponent    Coefficient

                          1       1    8dx2              0.247473       0.142917
                          1       1    8dxy              0.247473       0.247539
                          1       1    8dxz              0.247473       0.247539
                          1       1    8dy2              0.247473       0.142917
                          1       1    8dyz              0.247473       0.247539
                          1       1    8dz2              0.247473       0.142917

                          2       1    1s                0.269982       0.266939

                          3       1    5px               0.290292       0.303728
                          3       1    5py               0.290292       0.303728
                          3       1    5pz               0.290292       0.303728

                          4       1    2s                0.773829       0.588023

                          5       1    6px               1.337055       2.049400
                          5       1    6py               1.337055       2.049400
                          5       1    6pz               1.337055       2.049400

                          6       1    3s                2.228530       1.299942

                          7       1    9dx2              2.368474       7.442682
                          7       1    9dxy              2.368474      12.891104
                          7       1    9dxz              2.368474      12.891104
                          7       1    9dy2              2.368474       7.442682
                          7       1    9dyz              2.368474      12.891104
                          7       1    9dz2              2.368474       7.442682

                          8       1    7px               6.206242      13.962911
                          8       1    7py               6.206242      13.962911
                          8       1    7pz               6.206242      13.962911

                          9       1    4s                6.295867       2.832707

       Atomic covalent radius [Angstrom]:                                  0.750

       Atomic van der Waals radius [Angstrom]:                             1.550

     The atoms of this atomic kind are PAW atoms (GAPW):
       Hard Gaussian function radius:                                      1.512
       Rho0 radius:                                                        1.512
       Maximum GTO radius used for PAW projector construction:            24.566

     GAPW Soft Basis Set                             aug-SZV-MOLOPT-ae-mini_soft

       Number of orbital shell sets:                                           2
       Number of orbital shells:                                               5
       Number of primitive Cartesian functions:                                4
       Number of Cartesian basis functions:                                    9
       Number of spherical basis functions:                                    9
       Norm type:                                                              2

       Normalised Cartesian orbitals:

                        Set   Shell   Orbital            Exponent    Coefficient

                          1       1    1s                0.112012       0.000000
                                                         0.285714       0.194997
                                                         0.878496       0.258372
                                                         3.780455      -0.193164

                          1       2    2s                0.112012      -0.247059
                                                         0.285714       0.355178
                                                         0.878496       0.105643
                                                         3.780455      -0.000189

                          1       3    2px               0.112012       0.000000
                                                         0.285714       0.116706
                                                         0.878496       0.736703
                                                         3.780455       1.171552
                          1       3    2py               0.112012       0.000000
                                                         0.285714       0.116706
                                                         0.878496       0.736703
                                                         3.780455       1.171552
                          1       3    2pz               0.112012       0.000000
                                                         0.285714       0.116706
                                                         0.878496       0.736703
                                                         3.780455       1.171552

                          1       4    3px               0.112012       0.096580
                                                         0.285714      -0.017996
                                                         0.878496       0.000162
                                                         3.780455       0.000013
                          1       4    3py               0.112012       0.096580
                                                         0.285714      -0.017996
                                                         0.878496       0.000162
                                                         3.780455       0.000013
                          1       4    3pz               0.112012       0.096580
                                                         0.285714      -0.017996
                                                         0.878496       0.000162
                                                         3.780455       0.000013

                          2       1    1s         

     AE Potential information for                                            ALL

       Description:                                       All-electron potential
                                          Krack, Parrinello, PCCP 2, 2105 (2000)

       Gaussian exponent of the core charge distribution:               5.979100
       Electronic configuration (s p d ...):                           4   3   0

  3. Atomic kind: C                                     Number of atoms:       4

     Orbital Basis Set                                    aug-SZV-MOLOPT-ae-mini

       Number of orbital shell sets:                                           2
       Number of orbital shells:                                               5
       Number of primitive Cartesian functions:                                7
       Number of Cartesian basis functions:                                    9
       Number of spherical basis functions:                                    9
       Norm type:                                                              2

       Normalised Cartesian orbitals:

                        Set   Shell   Orbital            Exponent    Coefficient

                          1       1    2s                0.114558       0.000000
                                                         0.222289       0.161536
                                                         0.683483       0.214036
                                                         2.941249      -0.160017

                          1       2    3s                0.114558       0.000272
                                                         0.222289       0.256636
                                                         0.683483      -0.079244
                                                         2.941249       0.000032

                          1       3    3px               0.114558       0.000000
                                                         0.222289       0.085276
                                                         0.683483       0.538304
                                                         2.941249       0.856044
                          1       3    3py               0.114558       0.000000
                                                         0.222289       0.085276
                                                         0.683483       0.538304
                                                         2.941249       0.856044
                          1       3    3pz               0.114558       0.000000
                                                         0.222289       0.085276
                                                         0.683483       0.538304
                                                         2.941249       0.856044

                          1       4    4px               0.114558      -0.035043
                                                         0.222289      -0.159067
                                                         0.683483       0.106927
                                                         2.941249      -0.036832
                          1       4    4py               0.114558      -0.035043
                                                         0.222289      -0.159067
                                                         0.683483       0.106927
                                                         2.941249      -0.036832
                          1       4    4pz               0.114558      -0.035043
                                                         0.222289      -0.159067
                                                         0.683483       0.106927
                                                         2.941249      -0.036832

                          2       1    1s               71.616837       2.707801
                                                        13.045096       2.618883
                                                         3.530512       0.816191

     RI Auxiliary Basis Set             RI_aug-SZV-MOLOPT-ae-mini_N_RI_022_s_p_d

       Number of orbital shell sets:                                          10
       Number of orbital shells:                                              10
       Number of primitive Cartesian functions:                               10
       Number of Cartesian basis functions:                                   24
       Number of spherical basis functions:                                   22
       Norm type:                                                              2

       Normalised Cartesian orbitals:

                        Set   Shell   Orbital            Exponent    Coefficient

                          1       1    9dx2              0.319489       0.223463
                          1       1    9dxy              0.319489       0.387050
                          1       1    9dxz              0.319489       0.387050
                          1       1    9dy2              0.319489       0.223463
                          1       1    9dyz              0.319489       0.387050
                          1       1    9dz2              0.319489       0.223463

                          2       1    1s                0.357304       0.329373

                          3       1    7px               0.413040       0.471987
                          3       1    7py               0.413040       0.471987
                          3       1    7pz               0.413040       0.471987

                          4       1    2s                0.585920       0.477297

                          5       1    3s                0.962549       0.692592

                          6       1    8px               1.175289       1.744299
                          6       1    8py               1.175289       1.744299
                          6       1    8pz               1.175289       1.744299

                          7       1    4s                1.583093       1.005866

                          8       1   10dx2              1.968757       5.385741
                          8       1   10dxy              1.968757       9.328377
                          8       1   10dxz              1.968757       9.328377
                          8       1   10dy2              1.968757       5.385741
                          8       1   10dyz              1.968757       9.328377
                          8       1   10dz2              1.968757       5.385741

                          9       1    5s                2.602827       1.460475

                         10       1    6s                4.278785       2.120315

       Atomic covalent radius [Angstrom]:                                  0.770

       Atomic van der Waals radius [Angstrom]:                             1.700

     The atoms of this atomic kind are PAW atoms (GAPW):
       Hard Gaussian function radius:                                      1.512
       Rho0 radius:                                                        1.512
       Maximum GTO radius used for PAW projector construction:            24.566

     GAPW Soft Basis Set                             aug-SZV-MOLOPT-ae-mini_soft

       Number of orbital shell sets:                                           2
       Number of orbital shells:                                               5
       Number of primitive Cartesian functions:                                5
       Number of Cartesian basis functions:                                    9
       Number of spherical basis functions:                                    9
       Norm type:                                                              2

       Normalised Cartesian orbitals:

                        Set   Shell   Orbital            Exponent    Coefficient

                          1       1    2s                0.114558       0.000000
                                                         0.222289       0.161536
                                                         0.683483       0.214036
                                                         2.941249      -0.160017

                          1       2    3s                0.114558       0.000272
                                                         0.222289       0.256636
                                                         0.683483      -0.079244
                                                         2.941249       0.000032

                          1       3    3px               0.114558       0.000000
                                                         0.222289       0.085276
                                                         0.683483       0.538304
                                                         2.941249       0.856044
                          1       3    3py               0.114558       0.000000
                                                         0.222289       0.085276
                                                         0.683483       0.538304
                                                         2.941249       0.856044
                          1       3    3pz               0.114558       0.000000
                                                         0.222289       0.085276
                                                         0.683483       0.538304
                                                         2.941249       0.856044

                          1       4    4px               0.114558      -0.035043
                                                         0.222289      -0.159067
                                                         0.683483       0.106927
                                                         2.941249      -0.036832
                          1       4    4py               0.114558      -0.035043
                                                         0.222289      -0.159067
                                                         0.683483       0.106927
                                                         2.941249      -0.036832
                          1       4    4pz               0.114558      -0.035043
                                                         0.222289      -0.159067
                                                         0.683483       0.106927
                                                         2.941249      -0.036832

                          2       1    1s                3.530512       0.816191

     AE Potential information for                                            ALL

       Description:                                       All-electron potential
                                          Krack, Parrinello, PCCP 2, 2105 (2000)

       Gaussian exponent of the core charge distribution:               4.109048
       Electronic configuration (s p d ...):                           4   2   0

  4. Atomic kind: H                                     Number of atoms:       5

     Orbital Basis Set                                    aug-SZV-MOLOPT-ae-mini

       Number of orbital shell sets:                                           1
       Number of orbital shells:                                               4
       Number of primitive Cartesian functions:                                7
       Number of Cartesian basis functions:                                    6
       Number of spherical basis functions:                                    6
       Norm type:                                                              2

       Normalised Cartesian orbitals:

                        Set   Shell   Orbital            Exponent    Coefficient

                          1       1    1s                0.065428       0.000000
                                                         0.100112       0.016532
                                                         0.243077       0.102760
                                                         0.625955       0.185857
                                                         1.822143       0.188385
                                                         6.513144       0.143430
                                                        35.523221       0.095030

                          1       2    2s                0.065428       0.083549
                                                         0.100112       0.009605
                                                         0.243077       0.002524
                                                         0.625955       0.013457
                                                         1.822143       0.000000
                                                         6.513144       0.000000
                                                        35.523221       0.000000

                          1       3    3s                0.065428       0.037407
                                                         0.100112      -0.169070
                                                         0.243077      -0.018899
                                                         0.625955       0.012806
                                                         1.822143       0.000000
                                                         6.513144       0.000000
                                                        35.523221       0.000000

                          1       4    2px               0.065428       0.059908
                                                         0.100112      -0.023770
                                                         0.243077       0.000032
                                                         0.625955       0.017779
                                                         1.822143       0.000000
                                                         6.513144       0.000000
                                                        35.523221       0.000000
                          1       4    2py               0.065428       0.059908
                                                         0.100112      -0.023770
                                                         0.243077       0.000032
                                                         0.625955       0.017779
                                                         1.822143       0.000000
                                                         6.513144       0.000000
                                                        35.523221       0.000000
                          1       4    2pz               0.065428       0.059908
                                                         0.100112      -0.023770
                                                         0.243077       0.000032
                                                         0.625955       0.017779
                                                         1.822143       0.000000
                                                         6.513144       0.000000
                                                        35.523221       0.000000

     RI Auxiliary Basis Set             RI_aug-SZV-MOLOPT-ae_N_RI_007_s_p_d_f_g_

       Number of orbital shell sets:                                           5
       Number of orbital shells:                                               5
       Number of primitive Cartesian functions:                                5
       Number of Cartesian basis functions:                                    7
       Number of spherical basis functions:                                    7
       Norm type:                                                              2

       Normalised Cartesian orbitals:

                        Set   Shell   Orbital            Exponent    Coefficient

                          1       1    1s                0.148777       0.170731

                          2       1    5px               0.367452       0.407794
                          2       1    5py               0.367452       0.407794
                          2       1    5pz               0.367452       0.407794

                          3       1    2s                0.510503       0.430437

                          4       1    3s                1.106366       0.768837

                          5       1    4s                5.955292       2.716986

       Atomic covalent radius [Angstrom]:                                  0.320

       Atomic van der Waals radius [Angstrom]:                             1.090

     The atoms of this atomic kind are PAW atoms (GAPW):
       Hard Gaussian function radius:                                      1.200
       Rho0 radius:                                                        1.200
       Maximum GTO radius used for PAW projector construction:            24.566

     GAPW Soft Basis Set                             aug-SZV-MOLOPT-ae-mini_soft

       Number of orbital shell sets:                                           1
       Number of orbital shells:                                               4
       Number of primitive Cartesian functions:                                6
       Number of Cartesian basis functions:                                    6
       Number of spherical basis functions:                                    6
       Norm type:                                                              2

       Normalised Cartesian orbitals:

                        Set   Shell   Orbital            Exponent    Coefficient

                          1       1    1s                0.065428       0.000000
                                                         0.100112       0.016532
                                                         0.243077       0.102760
                                                         0.625955       0.185857
                                                         1.822143       0.188385
                                                         6.513144       0.000000

                          1       2    2s                0.065428       0.083549
                                                         0.100112       0.009605
                                                         0.243077       0.002524
                                                         0.625955       0.013457
                                                         1.822143       0.000000
                                                         6.513144       0.000000

                          1       3    3s                0.065428       0.037407
                                                         0.100112      -0.169070
                                                         0.243077      -0.018899
                                                         0.625955       0.012806
                                                         1.822143       0.000000
                                                         6.513144       0.000000

                          1       4    2px               0.065428       0.059908
                                                         0.100112      -0.023770
                                                         0.243077       0.000032
                                                         0.625955       0.017779
                                                         1.822143       0.000000
                                                         6.513144       0.000000
                          1       4    2py               0.065428       0.059908
                                                         0.100112      -0.023770
                                                         0.243077       0.000032
                                                         0.625955       0.017779
                                                         1.822143       0.000000
                                                         6.513144       0.000000
                          1       4    2pz               0.065428       0.059908
                                                         0.100112      -0.023770
                                                         0.243077       0.000032
                                                         0.625955       0.017779
                                                         1.822143       0.000000
                                                         6.513144       0.000000

     AE Potential information for                                            ALL

       Description:                                       All-electron potential
                                          Krack, Parrinello, PCCP 2, 2105 (2000)

       Gaussian exponent of the core charge distribution:              12.500000
       Electronic configuration (s p d ...):                           1   0   0


 MOLECULE KIND INFORMATION


 All atoms are their own molecule, skipping detailed information


 TOTAL NUMBERS AND MAXIMUM NUMBERS

  Total number of            - Atomic kinds:                                   4
                             - Atoms:                                         13
                             - Shell sets:                                    21
                             - Shells:                                        60
                             - Primitive Cartesian functions:                 91
                             - Cartesian basis functions:                    102
                             - Spherical basis functions:                    102

  Maximum angular momentum of the orbital basis functions:                     1


 MODULE QUICKSTEP: ATOMIC COORDINATES IN ANGSTROM

   Atom Kind Element         X             Y             Z       Z(eff)     Mass
      1    1 O     8     16.231839     15.316552     14.377209   8.0000  15.9994
      2    1 O     8     16.759328     17.051587     15.670270   8.0000  15.9994
      3    1 O     8     13.532579     12.948413     14.683520   8.0000  15.9994
      4    2 N     7     13.959217     14.844572     15.894910   7.0000  14.0067
      5    3 C     6     15.937730     16.235243     15.332180   6.0000  12.0107
      6    3 C     6     14.539819     16.175239     15.936173   6.0000  12.0107
      7    4 H     1     13.918083     16.921020     15.405701   1.0000   1.0079
      8    3 C     6     14.137638     14.000430     14.842232   6.0000  12.0107
      9    3 C     6     15.177097     14.484987     13.839586   6.0000  12.0107
     10    4 H     1     14.667929     15.027909     13.025871   1.0000   1.0079
     11    4 H     1     15.673508     13.610583     13.409901   1.0000   1.0079
     12    4 H     1     13.240672     14.589959     16.566308   1.0000   1.0079
     13    4 H     1     14.630259     16.511802     16.974129   1.0000   1.0079



 SCF PARAMETERS         Density guess:                                    ATOMIC
                        --------------------------------------------------------
                        max_scf:                                             500
                        max_scf_history:                                       0
                        max_diis:                                              4
                        --------------------------------------------------------
                        eps_scf:                                        1.00E-06
                        eps_scf_history:                                0.00E+00
                        eps_diis:                                       1.00E-01
                        eps_eigval:                                     1.00E-05
                        --------------------------------------------------------
                        level_shift [a.u.]:                             0.000000
                        added MOs                                        72    0
                        --------------------------------------------------------
                        Mixing method:                            BROYDEN_MIXING
                                                charge density mixing in g-space
                        --------------------------------------------------------
                        No outer SCF

 PW_GRID| Information for grid number                                          1
 PW_GRID| Grid distributed over                                    32 processors
 PW_GRID| Real space group dimensions                                    32    1
 PW_GRID| the grid is blocked:                                                NO
 PW_GRID| Cutoff [a.u.]                                                    250.0
 PW_GRID| spherical cutoff:                                                   NO
 PW_GRID|   Bounds   1           -202     202                Points:         405
 PW_GRID|   Bounds   2           -202     202                Points:         405
 PW_GRID|   Bounds   3           -202     202                Points:         405
 PW_GRID| Volume element (a.u.^3)  0.2743E-02     Volume (a.u.^3)    182205.0337
 PW_GRID| Grid span                                                    FULLSPACE
 PW_GRID|   Distribution                         Average         Max         Min
 PW_GRID|   G-Vectors                          2075941.4     2076030     2075625
 PW_GRID|   G-Rays                                5125.8        5126        5125
 PW_GRID|   Real Space Points                  2075941.4     2132325     1968300

 PW_GRID| Information for grid number                                          2
 PW_GRID| Number of the reference grid                                         1
 PW_GRID| Grid distributed over                                    32 processors
 PW_GRID| Real space group dimensions                                    32    1
 PW_GRID| the grid is blocked:                                                NO
 PW_GRID| Cutoff [a.u.]                                                     83.3
 PW_GRID| spherical cutoff:                                                   NO
 PW_GRID|   Bounds   1           -120     119                Points:         240
 PW_GRID|   Bounds   2           -120     119                Points:         240
 PW_GRID|   Bounds   3           -120     119                Points:         240
 PW_GRID| Volume element (a.u.^3)  0.1318E-01     Volume (a.u.^3)    182205.0337
 PW_GRID| Grid span                                                    FULLSPACE
 PW_GRID|   Distribution                         Average         Max         Min
 PW_GRID|   G-Vectors                           432000.0      432480      431760
 PW_GRID|   G-Rays                                1800.0        1802        1799
 PW_GRID|   Real Space Points                   432000.0      460800      403200

 PW_GRID| Information for grid number                                          3
 PW_GRID| Number of the reference grid                                         1
 PW_GRID| Grid distributed over                                    32 processors
 PW_GRID| Real space group dimensions                                    32    1
 PW_GRID| the grid is blocked:                                                NO
 PW_GRID| Cutoff [a.u.]                                                     27.8
 PW_GRID| spherical cutoff:                                                   NO
 PW_GRID|   Bounds   1            -67      67                Points:         135
 PW_GRID|   Bounds   2            -67      67                Points:         135
 PW_GRID|   Bounds   3            -67      67                Points:         135
 PW_GRID| Volume element (a.u.^3)  0.7406E-01     Volume (a.u.^3)    182205.0337
 PW_GRID| Grid span                                                    FULLSPACE
 PW_GRID|   Distribution                         Average         Max         Min
 PW_GRID|   G-Vectors                            76886.7       77085       76680
 PW_GRID|   G-Rays                                 569.5         571         568
 PW_GRID|   Real Space Points                    76886.7       91125       72900

 PW_GRID| Information for grid number                                          4
 PW_GRID| Number of the reference grid                                         1
 PW_GRID| Grid distributed over                                    32 processors
 PW_GRID| Real space group dimensions                                    32    1
 PW_GRID| the grid is blocked:                                                NO
 PW_GRID| Cutoff [a.u.]                                                      9.3
 PW_GRID| spherical cutoff:                                                   NO
 PW_GRID|   Bounds   1            -40      39                Points:          80
 PW_GRID|   Bounds   2            -40      39                Points:          80
 PW_GRID|   Bounds   3            -40      39                Points:          80
 PW_GRID| Volume element (a.u.^3)  0.3559         Volume (a.u.^3)    182205.0337
 PW_GRID| Grid span                                                    FULLSPACE
 PW_GRID|   Distribution                         Average         Max         Min
 PW_GRID|   G-Vectors                            16000.0       16160       15920
 PW_GRID|   G-Rays                                 200.0         202         199
 PW_GRID|   Real Space Points                    16000.0       19200       12800

 POISSON| Solver                                                         WAVELET
 POISSON| Wavelet| Scaling function                                           40
 POISSON| Periodicity                                                       NONE

 RS_GRID| Information for grid number                                          1
 RS_GRID|   Bounds   1           -202     202                Points:         405
 RS_GRID|   Bounds   2           -202     202                Points:         405
 RS_GRID|   Bounds   3           -202     202                Points:         405
 RS_GRID| Real space distribution over                                  2 groups
 RS_GRID| Real space distribution along direction                              1
 RS_GRID| Border size                                                         33
 RS_GRID| Real space distribution over                                  4 groups
 RS_GRID| Real space distribution along direction                              2
 RS_GRID| Border size                                                         33
 RS_GRID| Real space distribution over                                  4 groups
 RS_GRID| Real space distribution along direction                              3
 RS_GRID| Border size                                                         33
 RS_GRID|   Distribution                         Average         Max         Min
 RS_GRID|   Planes                                 268.5         269         268
 RS_GRID|   Distribution                         Average         Max         Min
 RS_GRID|   Planes                                 167.2         168         167
 RS_GRID|   Distribution                         Average         Max         Min
 RS_GRID|   Planes                                 167.2         168         167

 RS_GRID| Information for grid number                                          2
 RS_GRID|   Bounds   1           -120     119                Points:         240
 RS_GRID|   Bounds   2           -120     119                Points:         240
 RS_GRID|   Bounds   3           -120     119                Points:         240
 RS_GRID| Real space distribution over                                  2 groups
 RS_GRID| Real space distribution along direction                              1
 RS_GRID| Border size                                                         35
 RS_GRID| Real space distribution over                                  4 groups
 RS_GRID| Real space distribution along direction                              2
 RS_GRID| Border size                                                         35
 RS_GRID| Real space distribution over                                  4 groups
 RS_GRID| Real space distribution along direction                              3
 RS_GRID| Border size                                                         35
 RS_GRID|   Distribution                         Average         Max         Min
 RS_GRID|   Planes                                 190.0         190         190
 RS_GRID|   Distribution                         Average         Max         Min
 RS_GRID|   Planes                                 130.0         130         130
 RS_GRID|   Distribution                         Average         Max         Min
 RS_GRID|   Planes                                 130.0         130         130

 RS_GRID| Information for grid number                                          3
 RS_GRID|   Bounds   1            -67      67                Points:         135
 RS_GRID|   Bounds   2            -67      67                Points:         135
 RS_GRID|   Bounds   3            -67      67                Points:         135
 RS_GRID| Real space fully replicated
 RS_GRID| Group size                                                           1

 RS_GRID| Information for grid number                                          4
 RS_GRID|   Bounds   1            -40      39                Points:          80
 RS_GRID|   Bounds   2            -40      39                Points:          80
 RS_GRID|   Bounds   3            -40      39                Points:          80
 RS_GRID| Real space fully replicated
 RS_GRID| Group size                                                           1

  HFX_INFO| Replica ID:                                                        1
  HFX_INFO| FRACTION:                                               0.2500000000
  HFX_INFO| Interaction Potential:                                       COULOMB
  HFX_INFO| EPS_SCHWARZ:                                                 1.0E-10
  HFX_INFO| EPS_SCHWARZ_FORCES                                           1.0E-08
  HFX_INFO| EPS_STORAGE_SCALING:                                         1.0E+00
  HFX_INFO| NBINS:                                                            64
  HFX_INFO| BLOCK_SIZE:                                                        1
  HFX_INFO| Number of periodic shells considered:                           NONE
  HFX_INFO| Number of periodic cells considered:                            NONE


 OVERLAP MATRIX CONDITION NUMBER
 1-Norm Condition Number (Estimate)
   CN : |A|*|A^-1|:  1.820E+001 *  3.912E+003   = 7.120E+004  Log(1-CN):  4.8525
 1-Norm and 2-Norm Condition Numbers using Diagonalization
   CN : |A|*|A^-1|:  1.820E+001 *  4.116E+003   = 7.493E+004  Log(1-CN):  4.8746
   CN : max/min ev:  1.008E+001 /  4.852E-004   = 2.078E+004  Log(2-CN):  4.3176

 Number of electrons:                                                         60
 Number of occupied orbitals:                                                 30
 Number of molecular orbitals:                                               102

 Number of orbital functions:                                                102
 Number of independent orbital functions:                                    102

 Extrapolation method: initial_guess

 Atomic guess: The first density matrix is obtained in terms of atomic orbitals
               and electronic configurations assigned to each atomic kind

 Guess for atomic kind: O

 Electronic structure
    Total number of core electrons                                          0.00
    Total number of valence electrons                                       8.00
    Total number of electrons                                               8.00
    Multiplicity                                                   not specified
    S      2.00  2.00
    P      4.00


 *******************************************************************************
                  Iteration          Convergence                     Energy [au]
 *******************************************************************************
                          1        0.863863                     -73.413444334034
                          2        0.475457                     -73.501944400060
                          3        0.103564E-02                 -73.557269561969
                          4        0.190635E-03                 -73.557270044022
                          5        0.125020E-05                 -73.557270061478
                          6        0.707527E-06                 -73.557270061479

 Energy components [Hartree]           Total Energy ::          -73.557270061479
                                        Band Energy ::          -40.781734047812
                                     Kinetic Energy ::           71.485611268676
                                   Potential Energy ::         -145.042881330154
                                      Virial (-V/T) ::            2.028980080831
                                        Core Energy ::         -101.135954089231
                                          XC Energy ::           -7.619849605917
                                     Coulomb Energy ::           35.198533633670

 Orbital energies  State     L     Occupation   Energy[a.u.]          Energy[eV]

                       1     0          2.000     -18.754322         -510.331066
                       2     0          2.000      -0.915098          -24.901079

                       1     1          4.000      -0.360723           -9.815782


 Total Electron Density at R=0:                                       193.617216

 Guess for atomic kind: N

 Electronic structure
    Total number of core electrons                                          0.00
    Total number of valence electrons                                       7.00
    Total number of electrons                                               7.00
    Multiplicity                                                   not specified
    S      2.00  2.00
    P      3.00


 *******************************************************************************
                  Iteration          Convergence                     Energy [au]
 *******************************************************************************
                          1        0.395400                     -53.293349372466
                          2        0.225125                     -53.331168721159
                          3        0.860871E-03                 -53.359344571212
                          4        0.144713E-03                 -53.359344854486
                          5        0.187084E-05                 -53.359344864503
                          6        0.788718E-06                 -53.359344864504

 Energy components [Hartree]           Total Energy ::          -53.359344864504
                                        Band Energy ::          -30.026500782069
                                     Kinetic Energy ::           52.335746944580
                                   Potential Energy ::         -105.695091809084
                                      Virial (-V/T) ::            2.019558293894
                                        Core Energy ::          -72.545816435736
                                          XC Energy ::           -6.074236140041
                                     Coulomb Energy ::           25.260707711273

 Orbital energies  State     L     Occupation   Energy[a.u.]          Energy[eV]

                       1     0          2.000     -13.929313         -379.035885
                       2     0          2.000      -0.691080          -18.805237

                       1     1          3.000      -0.261905           -7.126799


 Total Electron Density at R=0:                                       127.566392

 Guess for atomic kind: C

 Electronic structure
    Total number of core electrons                                          0.00
    Total number of valence electrons                                       6.00
    Total number of electrons                                               6.00
    Multiplicity                                                   not specified
    S      2.00  2.00
    P      2.00


 *******************************************************************************
                  Iteration          Convergence                     Energy [au]
 *******************************************************************************
                          1        0.110940                     -36.966846197933
                          2        0.618479E-01                 -36.973380131832
                          3        0.312040E-03                 -36.976281169724
                          4        0.543046E-05                 -36.976281232084
                          5        0.506043E-09                 -36.976281232104

 Energy components [Hartree]           Total Energy ::          -36.976281232104
                                        Band Energy ::          -20.794821508944
                                     Kinetic Energy ::           36.488299270274
                                   Potential Energy ::          -73.464580502377
                                      Virial (-V/T) ::            2.013373655983
                                        Core Energy ::          -49.914993802944
                                          XC Energy ::           -4.745664989265
                                     Coulomb Energy ::           17.684377560105

 Orbital energies  State     L     Occupation   Energy[a.u.]          Energy[eV]

                       1     0          2.000      -9.777613         -266.062376
                       2     0          2.000      -0.465310          -12.661731

                       1     1          2.000      -0.154488           -4.203828


 Total Electron Density at R=0:                                        77.917232

 Guess for atomic kind: H

 Electronic structure
    Total number of core electrons                                          0.00
    Total number of valence electrons                                       1.00
    Total number of electrons                                               1.00
    Multiplicity                                                   not specified
    S      1.00


 *******************************************************************************
                  Iteration          Convergence                     Energy [au]
 *******************************************************************************
                          1        0.962691E-02                  -0.444368661081
                          2        0.109107E-02                  -0.444473520424
                          3        0.117094E-03                  -0.444476577889
                          4        0.851579E-07                  -0.444476596085

 Energy components [Hartree]           Total Energy ::           -0.444476596085
                                        Band Energy ::           -0.233451424826
                                     Kinetic Energy ::            0.431260327433
                                   Potential Energy ::           -0.875736923518
                                      Virial (-V/T) ::            2.030645686170
                                        Core Energy ::           -0.494218917327
                                          XC Energy ::           -0.231476335377
                                     Coulomb Energy ::            0.281218656618

 Orbital energies  State     L     Occupation   Energy[a.u.]          Energy[eV]

                       1     0          1.000      -0.233451           -6.352536


 Total Electron Density at R=0:                                         0.270947
 Re-scaling the density matrix to get the right number of electrons
[...]
 condensed phases.
 https://doi.org/10.1063/1.2770708

 L. Genovese, T. Deutsch, A. Neelov, S. Goedecker, G. Beylkin.
 J. Chem. Phys. 125, 074105 (2006).
 Efficient solution of Poisson's equation with free boundary conditions.
 https://doi.org/10.1063/1.2335442

 M. Iannuzzi, T. Chassaing, T. Wallman, J. Hutter.
 CHIMIA 59, 499-503 (2005).
 Ground and excited state density functional calculations with the Gaussian and 
 augmented-plane-wave method.
 https://doi.org/10.2533/000942905777676164

 M. Frigo, S. G. Johnson.
 Proc. IEEE 93, 216-231 (2005).
 The design and implementation of FFTW3.
 https://doi.org/10.1109/JPROC.2004.840301

 R. L. Martin.
 J. Chem. Phys. 118, 4775-4777 (2003).
 Natural transition orbitals.
 https://doi.org/10.1063/1.1558471

 M. Krack, M. Parrinello.
 Phys. Chem. Chem. Phys. 2, 2105-2112 (2000).
 All-electron ab-initio molecular dynamics.
 https://doi.org/10.1039/b001167n

 G. Lippert, J. Hutter, M. Parrinello.
 Theor. Chem. Acc. 103, 124-140 (1999).
 The Gaussian and augmented-plane-wave density functional method for ab initio 
 molecular dynamics simulations.
 https://doi.org/10.1007/s002140050523

 J. P. Perdew, K. Burke, M. Ernzerhof.
 Phys. Rev. Lett. 77, 3865-3868 (1996).
 Generalized gradient approximation made simple.
 https://doi.org/10.1103/PhysRevLett.77.3865


 -------------------------------------------------------------------------------
 -                                                                             -
 -                                T I M I N G                                  -
 -                                                                             -
 -------------------------------------------------------------------------------
 SUBROUTINE                       CALLS  ASD         SELF TIME        TOTAL TIME
                                MAXIMUM       AVERAGE  MAXIMUM  AVERAGE  MAXIMUM
 CP2K                                 1  1.0    0.019    0.025  338.611  338.617
 qs_energies                          1  2.0    0.000    0.000  338.051  338.055
 qs_energies_properties               1  3.0    0.000    0.000  212.138  212.141
 tddfpt                               1  4.0    0.000    0.000  212.138  212.141
 tddfpt_energies                      1  5.0    0.000    0.000  212.129  212.131
 tddfpt_davidson_solver               1  6.0    0.000    0.001  211.287  211.289
 tddfpt_compute_Aop_evects            7  7.0    0.000    0.000  210.641  210.643
 fhxc_kernel                          7  8.0    0.004    0.005  202.355  202.357
 fft_wrap_pw1pw2                   4305 11.0    0.067    0.086  124.372  126.177
 scf_env_do_scf                       1  3.0    0.000    0.000  123.194  123.196
 scf_env_do_scf_inner_loop           71  4.0    0.001    0.003  123.194  123.196
 fft_wrap_pw1pw2_250               3033 12.1    5.802    6.267  120.782  122.306
 pw_poisson_solve                   211  9.3    2.374    2.596  117.468  118.187
 fft3d_ps                          4305 13.0   43.788   48.127   92.203   95.169
 tddfpt_apply_coulomb               140  9.0    0.002    0.002   88.798   89.452
 qs_ks_update_qs_env                 71  5.0    0.000    0.001   89.308   89.309
 rebuild_ks_matrix                   71  6.0    0.000    0.000   89.302   89.304
 qs_ks_build_kohn_sham_matrix        71  7.0    0.009    0.010   89.302   89.304
 ps_wavelet_solve                   211 10.3   65.869   74.098   85.682   86.196
 mp_alltoall_d54                    211 11.3   11.462   66.663   11.462   66.663
 xc_pw_derive                      1269 11.0    0.008    0.009   58.462   59.404
 qs_rho_update_rho_low              213  7.6    0.002    0.003   55.978   55.980
 calculate_rho_elec                 213  8.6    1.667    1.716   55.774   55.777
 tddfpt_apply_xc_analytic           140  9.0    0.356    0.388   50.343   50.681
 mp_alltoall_z22v                  4305 15.0   35.437   44.525   35.437   44.525
 xc_pw_divergence                   211 10.7    0.004    0.005   38.970   39.842
 density_rs2pw                      213  9.6    0.007    0.008   30.372   31.723
 xc_calc_2nd_deriv_analytical       980 10.4    2.425    2.691   29.380   29.444
 yz_to_x                           2120 14.2    5.772    6.261   23.204   28.163
 x_to_yz                           2185 13.7    7.123    8.178   25.128   27.873
 qs_vxc_create                       71  8.0    0.001    0.001   27.434   27.434
 xc_vxc_pw_create                    71  9.0    0.747    0.788   27.433   27.434
 grid_collocate_task_list           213  9.6   23.221   24.344   23.221   24.344
 integrate_v_rspace                 211  9.0    0.005    0.006   22.748   22.837
 potential_pw2rs                    211 10.0    0.049    0.054   22.178   22.220
 transfer_pw2rs                    1056 10.9    0.012    0.015   16.461   16.689
 transfer_rs2pw                    1065 10.6    0.014    0.018   15.250   16.522
 prepare_gapw_den                   212  8.7    0.003    0.003   16.080   16.316
 put_rho0_on_grid                   212  9.7    1.686    1.757   15.763   15.999
 mp_waitany                       28006 12.7   12.913   14.791   12.913   14.791
 gspace_mixing                       70  5.0    0.548    0.565   14.786   14.786
 xc_rho_set_and_dset_create          72 10.0    0.418    0.448   13.303   14.109
 mp_alltoall_d45                    212 11.3    7.933   12.423    7.933   12.423
 broyden_mixing                      70  6.0   11.186   11.416   11.468   11.516
 transfer_rs2pw_250                 426 11.6    4.295    4.709   10.085   11.212
 pw_gather_p                       2120 13.2    9.946   11.186    9.946   11.186
 transfer_pw2rs_250                 423 11.7    4.533    4.789   10.609   11.053
 integrate_four_center              351  9.8    6.866    9.186   10.295   10.320
 pw_scatter_p                      2185 12.7    9.663   10.151    9.663   10.151
 pw_derive                         1902 11.8    7.907    8.390    7.907    8.390
 tddfpt_apply_hfx                     7  8.0    0.001    0.002    8.132    8.132
 mp_alltoall_d11v                 12756 11.6    3.379    8.020    3.379    8.020
 sum_up_and_integrate                71  8.0    0.001    0.001    7.886    7.920
 tddft_hfx_matrix                   280  9.0    0.003    0.003    7.537    7.552
 mp_sync                           1882 11.4    2.366    7.503    2.366    7.503
 integrate_vhg0_rspace              211  9.3    0.057    0.091    6.757    6.816
 pw_copy                           2890 10.9    4.876    5.154    4.876    5.154
 pw_copy_to_array                  2120 13.2    3.953    4.724    3.953    4.724
 mp_sum_d                          3849  7.6    2.470    4.569    2.470    4.569
 pw_poisson_set                     212 10.3    0.004    0.005    4.232    4.461
 cp2k_distribution_to_z_slices      211 10.3    1.970    2.278    3.889    4.460
 xc_functional_eval                1338 10.8    0.001    0.002    2.867    3.735
 pbe_lda_eval                      1338 11.8    2.866    3.733    2.866    3.733
 pw_axpy                           2258 10.7    3.384    3.665    3.384    3.665
 mp_waitall_1                    119166 13.7    2.451    3.246    2.451    3.246
 fft_wrap_pw1pw2_90                 424 11.8    0.147    0.156    2.722    3.196
 transfer_pw2rs_30                  211 12.0    1.464    1.598    2.729    3.086
 transfer_pw2rs_90                  211 12.0    0.731    0.806    2.564    3.083
 rs_grid_zero                      1058 11.9    2.889    3.029    2.889    3.029
 hfx_ks_matrix                       71  8.0    0.001    0.001    2.767    2.783
 transfer_rs2pw_90                  213 11.6    0.706    0.793    2.498    2.735
 pw_copy_from_array                2185 12.7    2.552    2.684    2.552    2.684
 pw_integral_ab_c1d_c1d_gs          211 10.3    2.290    2.329    2.520    2.646
 pw_zero                           2252 10.6    2.151    2.302    2.151    2.302
 transfer_rs2pw_30                  213 11.6    0.686    0.794    2.000    2.107
 mp_sendrecv_dv                   13206 12.6    1.810    1.963    1.810    1.963
 qs_energies_init_hamiltonians        1  3.0    0.000    0.000    1.815    1.815
 build_core_hamiltonian_matrix        1  4.0    0.000    0.000    1.636    1.636
 overlap_condnum                      1  5.0    0.000    0.000    1.634    1.635
 cp_fm_diag_elpa                    120  7.2    0.000    0.000    1.430    1.431
 mp_max_i                           684  4.7    0.595    1.259    0.595    1.259
 Vh_1c_gg_integrals                 211  9.3    0.018    0.056    0.559    1.206
 cp_fm_redistribute_end             120  8.2    0.595    1.168    0.598    1.172
 cp_dbcsr_sm_fm_multiply            886  8.6    0.009    0.011    1.104    1.119
 cp_fm_power                          1  6.0    0.000    0.000    1.010    1.058
 cp_fm_diag_elpa_base               120  8.3    0.443    0.704    0.501    0.999
 mp_sum_dm                         8377  9.8    0.683    0.966    0.683    0.966
 calculate_xc_2nd_deriv_atom        140  9.0    0.067    0.263    0.177    0.953
 init_scf_run                         1  3.0    0.000    0.000    0.837    0.838
 fft_wrap_pw1pw2_30                 424 11.8    0.032    0.034    0.643    0.830
 prepare_dr1dr                      980 11.4    0.760    0.824    0.760    0.824
 scf_env_initial_rho_setup            1  4.0    0.000    0.000    0.815    0.815
 dbcsr_complete_redistribute       2990 10.4    0.064    0.083    0.726    0.786
 copy_dbcsr_to_fm                   979  9.2    0.007    0.007    0.602    0.775
 cp_fm_redistribute_start           120  8.2    0.319    0.757    0.330    0.769
 gaVxcgb_GC                         633  9.7    0.105    0.756    0.105    0.756
 dbcsr_multiply_generic            1237 10.3    0.027    0.029    0.720    0.729
 transfer_rs2pw_10                  213 11.6    0.157    0.172    0.652    0.714
 grid_integrate_task_list           211 10.0    0.239    0.613    0.239    0.613
 transfer_pw2rs_10                  211 12.0    0.212    0.235    0.546    0.605
 rs_gather_matrices                 211 10.0    0.004    0.005    0.325    0.576
 scale_and_distribute               422 11.3    0.488    0.551    0.488    0.551
 pw_poisson_rebuild                 211 10.3    0.000    0.000    0.532    0.549
 ps_wavelet_create                    1 10.0    0.000    0.000    0.532    0.549
 RS_z_slice_distribution              1 11.0    0.462    0.500    0.532    0.549
 cp_dbcsr_sm_fm_multiply_core       886  9.6    0.001    0.002    0.488    0.495
 mp_alltoall_i22                   3970 11.4    0.376    0.457    0.376    0.457
 qs_scf_new_mos                      71  5.0    0.001    0.001    0.444    0.446
 powell_optimize                 274666 11.0    0.399    0.433    0.399    0.433
 integrate_four_center_main         351 10.8    0.050    0.075    0.373    0.413
 calculate_vxc_atom                  71  8.0    0.036    0.084    0.401    0.402
 mp_sum_dv                        13688  8.9    0.321    0.399    0.321    0.399
 qs_init_subsys                       1  2.0    0.001    0.001    0.387    0.387
 qs_env_setup                         1  3.0    0.000    0.000    0.384    0.385
 qs_env_rebuild_pw_env                2  3.5    0.000    0.000    0.384    0.384
 pw_env_rebuild                       1  5.0    0.000    0.000    0.384    0.384
 pw_scale                           564  9.5    0.353    0.383    0.353    0.383
 pw_grid_setup                        4  6.0    0.000    0.000    0.377    0.377
 pw_grid_setup_internal               4  7.0    0.005    0.006    0.377    0.377
 tddfpt_construct_ground_state_       1  6.0    0.000    0.000    0.360    0.362
 copy_fm_to_dbcsr                  2009  9.5    0.005    0.005    0.315    0.354
 integrate_four_center_bin        27490 11.8    0.323    0.351    0.323    0.351
 mp_isend_dv                      41046 13.5    0.236    0.341    0.236    0.341
 parallel_gemm_fm                  1341  8.2    0.001    0.001    0.309    0.335
 parallel_gemm_fm_cosma            1341  9.2    0.308    0.334    0.308    0.334
 dbcsr_desymmetrize_deep            980 10.2    0.010    0.013    0.315    0.321
 calc_screening_functions             1 10.0    0.078    0.079    0.310    0.316
 pw_grid_sort                         4  8.0    0.219    0.226    0.307    0.316
 eigensolver_symm                    71  6.0    0.005    0.006    0.314    0.315
 mp_bcast_b_src                     191  7.8    0.044    0.305    0.044    0.305
 cp_dbcsr_plus_fm_fm_t              211  8.3    0.002    0.002    0.293    0.295
 cp_fm_write_unformatted             24  7.0    0.282    0.291    0.282    0.291
 calculate_rho_atom                 848  9.7    0.182    0.285    0.182    0.285
 cp_fm_uplo_to_full                 121  9.3    0.055    0.282    0.055    0.282
 write_mo_set_to_restart             71  5.0    0.009    0.274    0.275    0.281
 make_m2s                          2474 11.3    0.014    0.014    0.267    0.278
 multiply_cannon                   1237 11.3    0.055    0.057    0.265    0.276
 write_mo_set_low                     4  6.0    0.000    0.000    0.266    0.274
 tddfpt_orthonormalize_psi1_psi       8  6.9    0.006    0.007    0.267    0.267
 calc_pair_dist_radii                 1 10.0    0.073    0.074    0.240    0.267
 create_kernel_env                    1  6.0    0.000    0.000    0.220    0.247
 xc_prep_2nd_deriv                    1  7.0    0.000    0.000    0.220    0.247
 mp_alltoall_i11v                  9950 11.4    0.101    0.244    0.101    0.244
 make_images                       2474 12.3    0.034    0.035    0.220    0.228
 mp_irecv_dv                      40768 13.5    0.029    0.218    0.029    0.218
 calculate_rho_atom_coeff           213  8.6    0.035    0.038    0.202    0.203
 tddfpt_compute_ritz_vects            7  7.0    0.002    0.002    0.197    0.197
 update_ks_atom                     211  8.7    0.023    0.027    0.114    0.193
 cp_fm_norm                           2  6.0    0.095    0.187    0.095    0.187
 fft_wrap_pw1pw2_10                 424 11.8    0.007    0.008    0.156    0.185
 tddfpt_print_nto_analysis            1  6.0    0.001    0.002    0.181    0.181
 qs_env_update_s_mstruct              1  4.0    0.000    0.000    0.038    0.178
 qs_create_task_list                  1  5.0    0.000    0.000    0.038    0.178
 generate_qs_task_list                1  6.0    0.000    0.000    0.037    0.178
 distribute_tasks                     1  7.0    0.000    0.000    0.037    0.178
 calculate_ecore_overlap              1  4.0    0.000    0.000    0.141    0.178
 create_local_tasks                   1  8.0    0.000    0.000    0.037    0.177
 mp_alltoall_l11v                     1  9.0    0.037    0.177    0.037    0.177
 hybrid_alltoall_any               3454 13.4    0.014    0.015    0.070    0.176
 mp_bcast_dm                       5486  9.7    0.091    0.173    0.091    0.173
 xc_2nd_deriv_of_r                  840 10.0    0.005    0.032    0.024    0.171
 tddfpt_compute_residual_vects        6  7.0    0.000    0.000    0.160    0.160
 tddfpt_apply_energy_diff             7  8.0    0.000    0.000    0.154    0.154
 multiply_cannon_loop              1237 12.3    0.031    0.032    0.144    0.152
 mp_isendrecv_dv                  34844 12.2    0.070    0.151    0.070    0.151
 arnoldi_conjugate_gradient           5  6.0    0.003    0.004    0.151    0.151
 mp_sum_l                          4845 10.4    0.126    0.139    0.126    0.139
 dbcsr_finalize                    7498 11.3    0.017    0.025    0.110    0.137
 create_qs_kind_set                   1  2.0    0.000    0.000    0.128    0.129
 read_qs_kind                         4  3.0    0.041    0.078    0.128    0.129
 mp_cart_sub                       1960 11.2    0.123    0.124    0.123    0.124
 mp_cart_create                    1828 10.5    0.102    0.108    0.103    0.110
 cp_fm_trace_a1b1t1_aa            10080  8.0    0.021    0.021    0.105    0.105
 make_images_sizes                 2474 13.3    0.002    0.002    0.089    0.100
 mp_isend_dm3                      7638 12.7    0.073    0.100    0.073    0.100
 mp_alltoall_i44                   2474 14.3    0.087    0.099    0.087    0.099
 sort_shells                          4  9.0    0.088    0.091    0.088    0.091
 dbcsr_sym_matrix_vector_mult      1035  7.0    0.007    0.008    0.086    0.089
 parser_read_line                 18161  4.0    0.003    0.003    0.087    0.089
 cp_fm_geeig                         20  7.0    0.001    0.001    0.088    0.088
 calculate_dm_sparse                 71  6.0    0.000    0.000    0.086    0.087
 parser_read_line_low                30  5.0    0.002    0.017    0.084    0.086
 broadcast_input_information         30  6.0    0.005    0.005    0.082    0.085
 xc_pw_smooth                        71 10.0    0.000    0.000    0.073    0.083
 tddfpt_orthogonalize_psi1_psi0       8  6.9    0.000    0.000    0.055    0.076
 dbcsr_merge_all                   6047 12.3    0.041    0.049    0.064    0.076
 integrate_four_center_dist_KS      351 10.8    0.012    0.014    0.067    0.072
 cp_fm_syrk                           1  7.0    0.069    0.072    0.069    0.072
 dbcsr_create_new                 24126 11.3    0.048    0.051    0.065    0.069
 mixing_init                          1  5.0    0.064    0.067    0.067    0.068
 offload_free_buffer                219 10.1    0.046    0.068    0.046    0.068
 mp_bcast_i_src                     120  7.0    0.062    0.066    0.062    0.066
 scf_post_calculation_gpw             1  3.0    0.000    0.000    0.065    0.065
 write_available_results              1  4.0    0.000    0.000    0.065    0.065
 write_mo_free_results                1  5.0    0.009    0.010    0.065    0.065
 mp_rank_compare                   4305 14.0    0.058    0.065    0.058    0.065
 integrate_four_center_getP         351 10.8    0.011    0.013    0.055    0.059
 vxc_of_r_new                       426  9.0    0.001    0.009    0.009    0.058
 dbcsr_add_d                       1606  7.1    0.001    0.001    0.016    0.056
 dbcsr_add_anytype                 1606  8.1    0.002    0.007    0.015    0.055
 make_images_data                  2474 13.3    0.014    0.016    0.045    0.054
 integrate_four_center_load         351 10.8    0.000    0.000    0.042    0.053
 hfx_load_balance                     1 11.0    0.000    0.000    0.042    0.053
 multiply_cannon_metrocomm3        9896 13.3    0.013    0.014    0.036    0.051
 dbcsr_work_create                10738 12.2    0.026    0.032    0.041    0.049
 dbcsr_iterator_start             33212 11.0    0.034    0.038    0.041    0.048
 hfx_load_balance_range               1 12.0    0.000    0.000    0.033    0.044
 copy_fm_to_dbcsr_bc               2009 10.5    0.011    0.012    0.040    0.043
 dbcsr_data_new                  107897 12.4    0.035    0.038    0.035    0.038
 mp_allgather_i34                  1237 12.3    0.030    0.037    0.030    0.037
 multiply_cannon_metrocomm4        8659 13.3    0.014    0.015    0.028    0.036
 dbcsr_col_vec_to_rep_row          1035  8.0    0.003    0.004    0.031    0.035
 pw_grid_assign                       4  8.0    0.031    0.033    0.034    0.034
 -------------------------------------------------------------------------------

 The number of warnings for this run is : 1
 
 -------------------------------------------------------------------------------
  **** **** ******  **  PROGRAM ENDED AT                 2025-06-23 12:05:29.375
 ***** ** ***  *** **   PROGRAM RAN ON                                  n2cn0173
 **    ****   ******    PROGRAM RAN BY                                  metdyn02
 ***** **    ** ** **   PROGRAM PROCESS ID                                799694
  **** **  *******  **  PROGRAM STOPPED IN /scratch/hpc-prf-metdyn/metdyn02_Remi
                                           /10_MOL/05_MOL/aUKBqsEOTmq69kFe5R_nOg
                                           /5k_set_final_qzvp/WEHYAK/mini-SZV/TD
                                           DFT/1e-4
