 DBCSR| CPU Multiplication driver                                           BLAS (U)
 DBCSR| Multrec recursion limit                                              512 (U)
 DBCSR| Multiplication stack size                                           1000 (D)
 DBCSR| Maximum elements for images                                    UNLIMITED (U)
 DBCSR| Multiplicative factor virtual images                                   1 (U)
 DBCSR| Use multiplication densification                                       T (D)
 DBCSR| Multiplication size stacks                                             3 (U)
 DBCSR| Use memory pool for CPU allocation                                     F (U)
 DBCSR| Number of 3D layers                                               SINGLE (U)
 DBCSR| Use MPI memory allocation                                              F (U)
 DBCSR| Use RMA algorithm                                                      F (U)
 DBCSR| Use Communication thread                                               T (U)
 DBCSR| Communication thread load                                             75 (D)
 DBCSR| MPI: My process id                                                     0
 DBCSR| MPI: Number of processes                                              48
 DBCSR| OMP: Current number of threads                                         4
 DBCSR| OMP: Max number of threads                                             4
 DBCSR| Split modifier for TAS multiplication algorithm                  1.0E+00 (U)


  **** **** ******  **  PROGRAM STARTED AT               2025-03-26 06:45:46.747
 ***** ** ***  *** **   PROGRAM STARTED ON                          i05r07c05s01
 **    ****   ******    PROGRAM STARTED BY                               di38fab
 ***** **    ** ** **   PROGRAM PROCESS ID                               1421595
  **** **  *******  **  PROGRAM STARTED IN /hppfs/scratch/04/di38fab/05_MOL/W4-1
                                           1+ALK/na2_h2/DZVP/GW+BSE/1e-4

 CP2K| version string:                 CP2K version 2025.1 (Development Version)
 CP2K| source code revision number:                                  git:d2e611a
 CP2K| cp2kflags: omp libint fftw3 libxc parallel scalapack max_contr=4         
 CP2K| is freely available from                            https://www.cp2k.org/
 CP2K| Program compiled at                       Thu 06 Mar 2025 05:09:20 PM CET
 CP2K| Program compiled on                                               login02
 CP2K| Program compiled for                                        Supermuc-foss
 CP2K| Data directory path                  /hppfs/work/pn36zo/di38fab/cp2k/data
 CP2K| Input file name                                                    GW.inp

 GLOBAL| Force Environment number                                              1
 GLOBAL| Basis set file name            /hppfs/scratch/04/di38fab/04_TMD/BASIS_A
 GLOBAL| Potential file name            /hppfs/work/pn36zo/di38fab/cp2k/data/ALL
 GLOBAL| MM Potential file name                                     MM_POTENTIAL
 GLOBAL| Coordinate file name                                      __STD_INPUT__
 GLOBAL| Method name                                                        CP2K
 GLOBAL| Project name                                                       MoS2
 GLOBAL| Run type                                                         ENERGY
 GLOBAL| FFT library                                                       FFTW3
 GLOBAL| Diagonalization library                                       ScaLAPACK
 GLOBAL| DGEMM library                                                      BLAS
 GLOBAL| Orthonormality check for eigenvectors                          DISABLED
 GLOBAL| Matrix multiplication library                                 ScaLAPACK
 GLOBAL| All-to-all communication in single precision                          F
 GLOBAL| FFTs using library dependent lengths                                  F
 GLOBAL| Grid backend                                                       AUTO
 GLOBAL| Global print level                                               MEDIUM
 GLOBAL| MPI I/O enabled                                                       T
 GLOBAL| Total number of message passing processes                            48
 GLOBAL| Number of threads for this process                                    4
 GLOBAL| This output is from process                                           0
 GLOBAL| OpenMP stack size per thread (OMP_STACKSIZE)                    default
 GLOBAL| CPU model name             Intel(R) Xeon(R) Platinum 8174 CPU @ 3.10GHz

 MEMORY| system memory details [Kb]
 MEMORY|                        rank 0           min           max       average
 MEMORY| MemTotal             98436708      98436660      98436708      98436674
 MEMORY| MemFree              83871156      83772248      84060324      83901501
 MEMORY| Buffers                     0             0             0             0
 MEMORY| Cached                2407568       2396596       2408560       2404499
 MEMORY| Slab                  1241168       1220576       1241168       1231096
 MEMORY| SReclaimable           273364        268412        274300        272397
 MEMORY| MemLikelyFree        86552088      86445932      86742396      86578397


 *** Fundamental physical constants (SI units) ***

 *** Literature: B. J. Mohr and B. N. Taylor,
 ***             CODATA recommended values of the fundamental physical
 ***             constants: 2006, Web Version 5.1
 ***             http://physics.nist.gov/constants

 Speed of light in vacuum [m/s]                             2.99792458000000E+08
 Magnetic constant or permeability of vacuum [N/A**2]       1.25663706143592E-06
 Electric constant or permittivity of vacuum [F/m]          8.85418781762039E-12
 Planck constant (h) [J*s]                                  6.62606896000000E-34
 Planck constant (h-bar) [J*s]                              1.05457162825177E-34
 Elementary charge [C]                                      1.60217648700000E-19
 Electron mass [kg]                                         9.10938215000000E-31
 Electron g factor [ ]                                     -2.00231930436220E+00
 Proton mass [kg]                                           1.67262163700000E-27
 Fine-structure constant                                    7.29735253760000E-03
 Rydberg constant [1/m]                                     1.09737315685270E+07
 Avogadro constant [1/mol]                                  6.02214179000000E+23
 Boltzmann constant [J/K]                                   1.38065040000000E-23
 Atomic mass unit [kg]                                      1.66053878200000E-27
 Bohr radius [m]                                            5.29177208590000E-11

 *** Conversion factors ***

 [u] -> [a.u.]                                              1.82288848426455E+03
 [Angstrom] -> [Bohr] = [a.u.]                              1.88972613288564E+00
 [a.u.] = [Bohr] -> [Angstrom]                              5.29177208590000E-01
 [a.u.] -> [s]                                              2.41888432650478E-17
 [a.u.] -> [fs]                                             2.41888432650478E-02
 [a.u.] -> [J]                                              4.35974393937059E-18
 [a.u.] -> [N]                                              8.23872205491840E-08
 [a.u.] -> [K]                                              3.15774647902944E+05
 [a.u.] -> [kJ/mol]                                         2.62549961709828E+03
 [a.u.] -> [kcal/mol]                                       6.27509468713739E+02
 [a.u.] -> [Pa]                                             2.94210107994716E+13
 [a.u.] -> [bar]                                            2.94210107994716E+08
 [a.u.] -> [atm]                                            2.90362800883016E+08
 [a.u.] -> [eV]                                             2.72113838565563E+01
 [a.u.] -> [Hz]                                             6.57968392072181E+15
 [a.u.] -> [1/cm] (wave numbers)                            2.19474631370540E+05
 [a.u./Bohr**2] -> [1/cm]                                   5.14048714338585E+03
 

 CELL_TOP| Volume [angstrom^3]:                                     27000.000000
 CELL_TOP| Vector a [angstrom    30.000     0.000     0.000   |a| =    30.000000
 CELL_TOP| Vector b [angstrom     0.000    30.000     0.000   |b| =    30.000000
 CELL_TOP| Vector c [angstrom     0.000     0.000    30.000   |c| =    30.000000
 CELL_TOP| Angle (b,c), alpha [degree]:                                90.000000
 CELL_TOP| Angle (a,c), beta  [degree]:                                90.000000
 CELL_TOP| Angle (a,b), gamma [degree]:                                90.000000
 CELL_TOP| Numerically orthorhombic:                                         YES
 CELL_TOP| Periodicity                                                      NONE

 GENERATE|  Preliminary Number of Bonds generated:                             0
 GENERATE|  Achieved consistency in connectivity generation.

 CELL| Volume [angstrom^3]:                                         27000.000000
 CELL| Vector a [angstrom]:      30.000     0.000     0.000   |a| =    30.000000
 CELL| Vector b [angstrom]:       0.000    30.000     0.000   |b| =    30.000000
 CELL| Vector c [angstrom]:       0.000     0.000    30.000   |c| =    30.000000
 CELL| Angle (b,c), alpha [degree]:                                    90.000000
 CELL| Angle (a,c), beta  [degree]:                                    90.000000
 CELL| Angle (a,b), gamma [degree]:                                    90.000000
 CELL| Numerically orthorhombic:                                             YES
 CELL| Periodicity                                                          NONE

 CELL_REF| Volume [angstrom^3]:                                     27000.000000
 CELL_REF| Vector a [angstrom    30.000     0.000     0.000   |a| =    30.000000
 CELL_REF| Vector b [angstrom     0.000    30.000     0.000   |b| =    30.000000
 CELL_REF| Vector c [angstrom     0.000     0.000    30.000   |c| =    30.000000
 CELL_REF| Angle (b,c), alpha [degree]:                                90.000000
 CELL_REF| Angle (a,c), beta  [degree]:                                90.000000
 CELL_REF| Angle (a,b), gamma [degree]:                                90.000000
 CELL_REF| Numerically orthorhombic:                                         YES
 CELL_REF| Periodicity                                                      NONE

 *******************************************************************************
 *******************************************************************************
 **                                                                           **
 **     #####                         ##              ##                      **
 **    ##   ##            ##          ##              ##                      **
 **   ##     ##                       ##            ######                    **
 **   ##     ##  ##   ##  ##   #####  ##  ##   ####   ##    #####    #####    **
 **   ##     ##  ##   ##  ##  ##      ## ##   ##      ##   ##   ##  ##   ##   **
 **   ##  ## ##  ##   ##  ##  ##      ####     ###    ##   ######   ######    **
 **    ##  ###   ##   ##  ##  ##      ## ##      ##   ##   ##       ##        **
 **     #######   #####   ##   #####  ##  ##  ####    ##    #####   ##        **
 **           ##                                                    ##        **
 **                                                                           **
 **                                                ... make the atoms dance   **
 **                                                                           **
 **            Copyright (C) by CP2K developers group (2000-2025)             **
 **                      J. Chem. Phys. 152, 194103 (2020)                    **
 **                                                                           **
 *******************************************************************************

 DFT| Spin restricted Kohn-Sham (RKS) calculation                            RKS
 DFT| Multiplicity                                                             1
 DFT| Number of spin states                                                    1
 DFT| Charge                                                                   0
 DFT| Self-interaction correction (SIC)                                       NO
 DFT| Cutoffs: density                                              1.000000E-10
 DFT|          gradient                                             1.000000E-10
 DFT|          tau                                                  1.000000E-10
 DFT|          cutoff_smoothing_range                               0.000000E+00
 DFT| XC density smoothing                                                  NONE
 DFT| XC derivatives                                                          PW

 FUNCTIONAL| PBE:
 FUNCTIONAL| J.P.Perdew, K.Burke, M.Ernzerhof, Phys. Rev. Letter, vol. 77, n 18,
 FUNCTIONAL|  pp. 3865-3868, (1996)sx=0.750sc=1.000{spin unpolarized}           


 QS| Method:                                                                GAPW
 QS| Density plane wave grid type                        NON-SPHERICAL FULLSPACE
 QS| Number of grid levels:                                                    4
 QS| Density cutoff [a.u.]:                                                250.0
 QS| Multi grid cutoff [a.u.]: 1) grid level                               250.0
 QS|                           2) grid level                                83.3
 QS|                           3) grid level                                27.8
 QS|                           4) grid level                                 9.3
 QS| Grid level progression factor:                                          3.0
 QS| Relative density cutoff [a.u.]:                                        50.0
 QS| Interaction thresholds: eps_pgf_orb:                                1.0E-12
 QS|                         eps_filter_matrix:                          0.0E+00
 QS|                         eps_core_charge:                            1.0E-14
 QS|                         eps_rho_gspace:                             1.0E-12
 QS|                         eps_rho_rspace:                             1.0E-12
 QS|                         eps_gvg_rspace:                             1.0E-06
 QS|                         eps_ppl:                                    1.0E-02
 QS|                         eps_ppnl:                                   1.0E-08
 QS| GAPW|      One center basis from orbital basis primitives
 QS| GAPW|                   eps_fit:                                    1.0E-04
 QS| GAPW|                   eps_iso:                                    1.0E-12
 QS| GAPW|                   eps_svd:                                    1.0E-08
 QS| GAPW|                   eps_cpc:                                    1.0E-12
 QS| GAPW|   atom-r-grid: quadrature:                                     GC_LOG
 QS| GAPW|      atom-s-grid:  max l :                                          6
 QS| GAPW|      max_l_rho0 :                                                   2


 ATOMIC KIND INFORMATION

  1. Atomic kind: na                                    Number of atoms:       2

     Orbital Basis Set                                        aug-DZVP-MOLOPT-ae

       Number of orbital shell sets:                                           3
       Number of orbital shells:                                              11
       Number of primitive Cartesian functions:                               17
       Number of Cartesian basis functions:                                   36
       Number of spherical basis functions:                                   31
       Norm type:                                                              2

       Normalised Cartesian orbitals:

                        Set   Shell   Orbital            Exponent    Coefficient

                          1       1    1s                0.045196      -0.078079
                                                         0.100000       0.012331
                                                         0.305164       0.013349
                                                         1.013846       0.034883
                                                         3.279754       0.000000
                                                        12.049726       0.000000
                                                        75.335905       0.000000

                          1       2    2px               0.045196       0.003379
                                                         0.100000       0.000000
                                                         0.305164       0.060539
                                                         1.013846       0.638441
                                                         3.279754       2.675996
                                                        12.049726       5.351614
                                                        75.335905       6.918013
                          1       2    2py               0.045196       0.003379
                                                         0.100000       0.000000
                                                         0.305164       0.060539
                                                         1.013846       0.638441
                                                         3.279754       2.675996
                                                        12.049726       5.351614
                                                        75.335905       6.918013
                          1       2    2pz               0.045196       0.003379
                                                         0.100000       0.000000
                                                         0.305164       0.060539
                                                         1.013846       0.638441
                                                         3.279754       2.675996
                                                        12.049726       5.351614
                                                        75.335905       6.918013

                          1       3    3px               0.045196       0.027497
                                                         0.100000       0.000000
                                                         0.305164       0.060858
                                                         1.013846      -0.344379
                                                         3.279754      -0.384455
                                                        12.049726      -1.908275
                                                        75.335905      -0.711483
                          1       3    3py               0.045196       0.027497
                                                         0.100000       0.000000
                                                         0.305164       0.060858
                                                         1.013846      -0.344379
                                                         3.279754      -0.384455
                                                        12.049726      -1.908275
                                                        75.335905      -0.711483
                          1       3    3pz               0.045196       0.027497
                                                         0.100000       0.000000
                                                         0.305164       0.060858
                                                         1.013846      -0.344379
                                                         3.279754      -0.384455
                                                        12.049726      -1.908275
                                                        75.335905      -0.711483

                          1       4    4px               0.045196       0.033438
                                                         0.100000      -0.013304
                                                         0.305164       0.005443
                                                         1.013846       0.024343
                                                         3.279754       0.000000
                                                        12.049726       0.000000
                                                        75.335905       0.000000
                          1       4    4py               0.045196       0.033438
                                                         0.100000      -0.013304
                                                         0.305164       0.005443
                                                         1.013846       0.024343
                                                         3.279754       0.000000
                                                        12.049726       0.000000
                                                        75.335905       0.000000
                          1       4    4pz               0.045196       0.033438
                                                         0.100000      -0.013304
                                                         0.305164       0.005443
                                                         1.013846       0.024343
                                                         3.279754       0.000000
                                                        12.049726       0.000000
                                                        75.335905       0.000000

                          1       5    3dx2              0.045196       0.005469
                                                         0.100000       0.000000
                                                         0.305164       0.102499
                                                         1.013846      -0.034178
                                                         3.279754       1.314476
                                                        12.049726      -5.846459
                                                        75.335905      35.459509
                          1       5    3dxy              0.045196       0.009473
                                                         0.100000       0.000000
                                                         0.305164       0.177534
                                                         1.013846      -0.059198
                                                         3.279754       2.276739
                                                        12.049726     -10.126364
                                                        75.335905      61.417671
                          1       5    3dxz              0.045196       0.009473
                                                         0.100000       0.000000
                                                         0.305164       0.177534
                                                         1.013846      -0.059198
                                                         3.279754       2.276739
                                                        12.049726     -10.126364
                                                        75.335905      61.417671
                          1       5    3dy2              0.045196       0.005469
                                                         0.100000       0.000000
                                                         0.305164       0.102499
                                                         1.013846      -0.034178
                                                         3.279754       1.314476
                                                        12.049726      -5.846459
                                                        75.335905      35.459509
                          1       5    3dyz              0.045196       0.009473
                                                         0.100000       0.000000
                                                         0.305164       0.177534
                                                         1.013846      -0.059198
                                                         3.279754       2.276739
                                                        12.049726     -10.126364
                                                        75.335905      61.417671
                          1       5    3dz2              0.045196       0.005469
                                                         0.100000       0.000000
                                                         0.305164       0.102499
                                                         1.013846      -0.034178
                                                         3.279754       1.314476
                                                        12.049726      -5.846459
                                                        75.335905      35.459509

                          1       6    4dx2              0.045196      -0.000370
                                                         0.100000       0.029233
                                                         0.305164       0.009897
                                                         1.013846       0.084642
                                                         3.279754       0.000000
                                                        12.049726       0.000000
                                                        75.335905       0.000000
                          1       6    4dxy              0.045196      -0.000640
                                                         0.100000       0.050633
                                                         0.305164       0.017142
                                                         1.013846       0.146605
                                                         3.279754       0.000000
                                                        12.049726       0.000000
                                                        75.335905       0.000000
                          1       6    4dxz              0.045196      -0.000640
                                                         0.100000       0.050633
                                                         0.305164       0.017142
                                                         1.013846       0.146605
                                                         3.279754       0.000000
                                                        12.049726       0.000000
                                                        75.335905       0.000000
                          1       6    4dy2              0.045196      -0.000370
                                                         0.100000       0.029233
                                                         0.305164       0.009897
                                                         1.013846       0.084642
                                                         3.279754       0.000000
                                                        12.049726       0.000000
                                                        75.335905       0.000000
                          1       6    4dyz              0.045196      -0.000640
                                                         0.100000       0.050633
                                                         0.305164       0.017142
                                                         1.013846       0.146605
                                                         3.279754       0.000000
                                                        12.049726       0.000000
                                                        75.335905       0.000000
                          1       6    4dz2              0.045196      -0.000370
                                                         0.100000       0.029233
                                                         0.305164       0.009897
                                                         1.013846       0.084642
                                                         3.279754       0.000000
                                                        12.049726       0.000000
                                                        75.335905       0.000000

                          1       7    4fx3              0.045196       0.001361
                                                         0.100000       0.000210
                                                         0.305164       0.000269
                                                         1.013846       0.004006
                                                         3.279754       0.000000
                                                        12.049726       0.000000
                                                        75.335905       0.000000
                          1       7    4fx2y             0.045196       0.003043
                                                         0.100000       0.000469
                                                         0.305164       0.000601
                                                         1.013846       0.008957
                                                         3.279754       0.000000
                                                        12.049726       0.000000
                                                        75.335905       0.000000
                          1       7    4fx2z             0.045196       0.003043
                                                         0.100000       0.000469
                                                         0.305164       0.000601
                                                         1.013846       0.008957
                                                         3.279754       0.000000
                                                        12.049726       0.000000
                                                        75.335905       0.000000
                          1       7    4fxy2             0.045196       0.003043
                                                         0.100000       0.000469
                                                         0.305164       0.000601
                                                         1.013846       0.008957
                                                         3.279754       0.000000
                                                        12.049726       0.000000
                                                        75.335905       0.000000
                          1       7    4fxyz             0.045196       0.005270
                                                         0.100000       0.000811
                                                         0.305164       0.001041
                                                         1.013846       0.015514
                                                         3.279754       0.000000
                                                        12.049726       0.000000
                                                        75.335905       0.000000
                          1       7    4fxz2             0.045196       0.003043
                                                         0.100000       0.000469
                                                         0.305164       0.000601
                                                         1.013846       0.008957
                                                         3.279754       0.000000
                                                        12.049726       0.000000
                                                        75.335905       0.000000
                          1       7    4fy3              0.045196       0.001361
                                                         0.100000       0.000210
                                                         0.305164       0.000269
                                                         1.013846       0.004006
                                                         3.279754       0.000000
                                                        12.049726       0.000000
                                                        75.335905       0.000000
                          1       7    4fy2z             0.045196       0.003043
                                                         0.100000       0.000469
                                                         0.305164       0.000601
                                                         1.013846       0.008957
                                                         3.279754       0.000000
                                                        12.049726       0.000000
                                                        75.335905       0.000000
                          1       7    4fyz2             0.045196       0.003043
                                                         0.100000       0.000469
                                                         0.305164       0.000601
                                                         1.013846       0.008957
                                                         3.279754       0.000000
                                                        12.049726       0.000000
                                                        75.335905       0.000000
                          1       7    4fz3              0.045196       0.001361
                                                         0.100000       0.000210
                                                         0.305164       0.000269
                                                         1.013846       0.004006
                                                         3.279754       0.000000
                                                        12.049726       0.000000
                                                        75.335905       0.000000

                          2       1    1s               19.238720       0.839446
                                                         5.090226      -0.985535
                                                         1.696440      -0.449498
                                                         0.050328      -0.010005
                                                         0.553126      -0.139107

                          2       2    2s               19.238720      -0.578359
                                                         5.090226       3.142609
                                                         1.696440      -1.033598
                                                         0.050328       0.030134
                                                         0.553126      -0.271692

                          2       3    3s               19.238720       0.262043
                                                         5.090226      -0.735124
                                                         1.696440       0.026311
                                                         0.050328       0.075714
                                                         0.553126      -0.019968

                          3       1    1s             4098.270759      -2.221957
                                                       616.747254      -4.059391
                                                       138.821600      -5.767508
                                                        40.548805      -5.249755
                                                        14.109896      -2.200247

     RI Auxiliary Basis Set             RI_aug-DZVP-MOLOPT-ae_N_RI_069_s_p_d_f_g

       Number of orbital shell sets:                                          19
       Number of orbital shells:                                              19
       Number of primitive Cartesian functions:                               19
       Number of Cartesian basis functions:                                   92
       Number of spherical basis functions:                                   69
       Norm type:                                                              2

       Normalised Cartesian orbitals:

                        Set   Shell   Orbital            Exponent    Coefficient

                          1       1    1s                0.119810       0.145137

                          2       1   13dx2              0.196786       0.095698
                          2       1   13dxy              0.196786       0.165753
                          2       1   13dxz              0.196786       0.165753
                          2       1   13dy2              0.196786       0.095698
                          2       1   13dyz              0.196786       0.165753
                          2       1   13dz2              0.196786       0.095698

                          3       1   19hx5              0.309768       0.016452
                          3       1   19hx4y             0.309768       0.049355
                          3       1   19hx4z             0.309768       0.049355
                          3       1   19hx3y2            0.309768       0.075391
                          3       1   19hx3yz            0.309768       0.130582
                          3       1   19hx3z2            0.309768       0.075391
                          3       1   19hx2y3            0.309768       0.075391
                          3       1   19hx2y2z           0.309768       0.168580
                          3       1   19hx2yz2           0.309768       0.168580
                          3       1   19hx2z3            0.309768       0.075391
                          3       1   19hxy4             0.309768       0.049355
                          3       1   19hxy3z            0.309768       0.130582
                          3       1   19hxy2z2           0.309768       0.168580
                          3       1   19hxyz3            0.309768       0.130582
                          3       1   19hxz4             0.309768       0.049355
                          3       1   19hy5              0.309768       0.016452
                          3       1   19hy4z             0.309768       0.049355
                          3       1   19hy3z2            0.309768       0.075391
                          3       1   19hy2z3            0.309768       0.075391
                          3       1   19hyz4             0.309768       0.049355
                          3       1   19hz5              0.309768       0.016452

                          4       1    8px               0.326354       0.351602
                          4       1    8py               0.326354       0.351602
                          4       1    8pz               0.326354       0.351602

                          5       1    2s                0.504877       0.426873

                          6       1   18gx4              0.515496       0.179910
                          6       1   18gx3y             0.515496       0.475996
                          6       1   18gx3z             0.515496       0.475996
                          6       1   18gx2y2            0.515496       0.614509
                          6       1   18gx2yz            0.515496       1.064360
                          6       1   18gx2z2            0.515496       0.614509
                          6       1   18gxy3             0.515496       0.475996
                          6       1   18gxy2z            0.515496       1.064360
                          6       1   18gxyz2            0.515496       1.064360
                          6       1   18gxz3             0.515496       0.475996
                          6       1   18gy4              0.515496       0.179910
                          6       1   18gy3z             0.515496       0.475996
                          6       1   18gy2z2            0.515496       0.614509
                          6       1   18gyz3             0.515496       0.475996
                          6       1   18gz4              0.515496       0.179910

                          7       1   14dx2              0.716369       0.918119
                          7       1   14dxy              0.716369       1.590229
                          7       1   14dxz              0.716369       1.590229
                          7       1   14dy2              0.716369       0.918119
                          7       1   14dyz              0.716369       1.590229
                          7       1   14dz2              0.716369       0.918119

                          8       1    9px               0.954228       1.344328
                          8       1    9py               0.954228       1.344328
                          8       1    9pz               0.954228       1.344328

                          9       1    3s                1.800625       1.107841

                         10       1   15dx2              2.162319       6.346276
                         10       1   15dxy              2.162319      10.992073
                         10       1   15dxz              2.162319      10.992073
                         10       1   15dy2              2.162319       6.346276
                         10       1   15dyz              2.162319      10.992073
                         10       1   15dz2              2.162319       6.346276

                         11       1   17fx3              2.373292      10.291875
                         11       1   17fx2y             2.373292      23.013332
                         11       1   17fx2z             2.373292      23.013332
                         11       1   17fxy2             2.373292      23.013332
                         11       1   17fxyz             2.373292      39.860260
                         11       1   17fxz2             2.373292      23.013332
                         11       1   17fy3              2.373292      10.291875
                         11       1   17fy2z             2.373292      23.013332
                         11       1   17fyz2             2.373292      23.013332
                         11       1   17fz3              2.373292      10.291875

                         12       1   10px               2.789338       5.138265
                         12       1   10py               2.789338       5.138265
                         12       1   10pz               2.789338       5.138265

                         13       1    4s                5.501582       2.560211

                         14       1   16dx2              8.158692      64.825432
                         14       1   16dxy              8.158692     112.280942
                         14       1   16dxz              8.158692     112.280942
                         14       1   16dy2              8.158692      64.825432
                         14       1   16dyz              8.158692     112.280942
                         14       1   16dz2              8.158692      64.825432

                         15       1   11px               8.646509      21.134458
                         15       1   11py               8.646509      21.134458
                         15       1   11pz               8.646509      21.134458

                         16       1    5s               13.342667       4.975561

                         17       1   12px              25.814807      82.942323
                         17       1   12py              25.814807      82.942323
                         17       1   12pz              25.814807      82.942323

                         18       1    6s               47.920441      12.980777

                         19       1    7s              166.703553      33.065016

       Atomic covalent radius [Angstrom]:                                  1.540

       Atomic van der Waals radius [Angstrom]:                             2.270

     The atoms of this atomic kind are PAW atoms (GAPW):
       Hard Gaussian function radius:                                      1.512
       Rho0 radius:                                                        1.512
       Maximum GTO radius used for PAW projector construction:            24.566

     GAPW Soft Basis Set                                 aug-DZVP-MOLOPT-ae_soft

       Number of orbital shell sets:                                           3
       Number of orbital shells:                                              11
       Number of primitive Cartesian functions:                                8
       Number of Cartesian basis functions:                                   36
       Number of spherical basis functions:                                   31
       Norm type:                                                              2

       Normalised Cartesian orbitals:

                        Set   Shell   Orbital            Exponent    Coefficient

                          1       1    1s                0.045196      -0.078079
                                                         0.100000       0.012331
                                                         0.305164       0.013349
                                                         1.013846       0.034883
                                                         3.279754       0.000000

                          1       2    2px               0.045196       0.003379
                                                         0.100000       0.000000
                                                         0.305164       0.060539
                                                         1.013846       0.638441
                                                         3.279754       2.675996
                          1       2    2py               0.045196       0.003379
                                                         0.100000       0.000000
                                                         0.305164       0.060539
                                                         1.013846       0.638441
                                                         3.279754       2.675996
                          1       2    2pz               0.045196       0.003379
                                                         0.100000       0.000000
                                                         0.305164       0.060539
                                                         1.013846       0.638441
                                                         3.279754       2.675996

                          1       3    3px               0.045196       0.027497
                                                         0.100000       0.000000
                                                         0.305164       0.060858
                                                         1.013846      -0.344379
                                                         3.279754      -0.384455
                          1       3    3py               0.045196       0.027497
                                                         0.100000       0.000000
                                                         0.305164       0.060858
                                                         1.013846      -0.344379
                                                         3.279754      -0.384455
                          1       3    3pz               0.045196       0.027497
                                                         0.100000       0.000000
                                                         0.305164       0.060858
                                                         1.013846      -0.344379
                                                         3.279754      -0.384455

                          1       4    4px               0.045196       0.033438
                                                         0.100000      -0.013304
                                                         0.305164       0.005443
                                                         1.013846       0.024343
                                                         3.279754       0.000000
                          1       4    4py               0.045196       0.033438
                                                         0.100000      -0.013304
                                                         0.305164       0.005443
                                                         1.013846       0.024343
                                                         3.279754       0.000000
                          1       4    4pz               0.045196       0.033438
                                                         0.100000      -0.013304
                                                         0.305164       0.005443
                                                         1.013846       0.024343
                                                         3.279754       0.000000

                          1       5    3dx2              0.045196       0.005469
                                                         0.100000       0.000000
                                                         0.305164       0.102499
                                                         1.013846      -0.034178
                                                         3.279754       1.314476
                          1       5    3dxy              0.045196       0.009473
                                                         0.100000       0.000000
                                                         0.305164       0.177534
                                                         1.013846      -0.059198
                                                         3.279754       2.276739
                          1       5    3dxz              0.045196       0.009473
                                                         0.100000       0.000000
                                                         0.305164       0.177534
                                                         1.013846      -0.059198
                                                         3.279754       2.276739
                          1       5    3dy2              0.045196       0.005469
                                                         0.100000       0.000000
                                                         0.305164       0.102499
                                                         1.013846      -0.034178
                                                         3.279754       1.314476
                          1       5    3dyz              0.045196       0.009473
                                                         0.100000       0.000000
                                                         0.305164       0.177534
                                                         1.013846      -0.059198
                                                         3.279754       2.276739
                          1       5    3dz2              0.045196       0.005469
                                                         0.100000       0.000000
                                                         0.305164       0.102499
                                                         1.013846      -0.034178
                                                         3.279754       1.314476

                          1       6    4dx2              0.045196      -0.000370
                                                         0.100000       0.029233
                                                         0.305164       0.009897
                                                         1.013846       0.084642
                                                         3.279754       0.000000
                          1       6    4dxy              0.045196      -0.000640
                                                         0.100000       0.050633
                                                         0.305164       0.017142
                                                         1.013846       0.146605
                                                         3.279754       0.000000
                          1       6    4dxz              0.045196      -0.000640
                                                         0.100000       0.050633
                                                         0.305164       0.017142
                                                         1.013846       0.146605
                                                         3.279754       0.000000
                          1       6    4dy2              0.045196      -0.000370
                                                         0.100000       0.029233
                                                         0.305164       0.009897
                                                         1.013846       0.084642
                                                         3.279754       0.000000
                          1       6    4dyz              0.045196      -0.000640
                                                         0.100000       0.050633
                                                         0.305164       0.017142
                                                         1.013846       0.146605
                                                         3.279754       0.000000
                          1       6    4dz2              0.045196      -0.000370
                                                         0.100000       0.029233
                                                         0.305164       0.009897
                                                         1.013846       0.084642
                                                         3.279754       0.000000

                          1       7    4fx3              0.045196       0.001361
                                                         0.100000       0.000210
                                                         0.305164       0.000269
                                                         1.013846       0.004006
                                                         3.279754       0.000000
                          1       7    4fx2y             0.045196       0.003043
                                                         0.100000       0.000469
                                                         0.305164       0.000601
                                                         1.013846       0.008957
                                                         3.279754       0.000000
                          1       7    4fx2z             0.045196       0.003043
                                                         0.100000       0.000469
                                                         0.305164       0.000601
                                                         1.013846       0.008957
                                                         3.279754       0.000000
                          1       7    4fxy2             0.045196       0.003043
                                                         0.100000       0.000469
                                                         0.305164       0.000601
                                                         1.013846       0.008957
                                                         3.279754       0.000000
                          1       7    4fxyz             0.045196       0.005270
                                                         0.100000       0.000811
                                                         0.305164       0.001041
                                                         1.013846       0.015514
                                                         3.279754       0.000000
                          1       7    4fxz2             0.045196       0.003043
                                                         0.100000       0.000469
                                                         0.305164       0.000601
                                                         1.013846       0.008957
                                                         3.279754       0.000000
                          1       7    4fy3              0.045196       0.001361
                                                         0.100000       0.000210
                                                         0.305164       0.000269
                                                         1.013846       0.004006
                                                         3.279754       0.000000
                          1       7    4fy2z             0.045196       0.003043
                                                         0.100000       0.000469
                                                         0.305164       0.000601
                                                         1.013846       0.008957
                                                         3.279754       0.000000
                          1       7    4fyz2             0.045196       0.003043
                                                         0.100000       0.000469
                                                         0.305164       0.000601
                                                         1.013846       0.008957
                                                         3.279754       0.000000
                          1       7    4fz3              0.045196       0.001361
                                                         0.100000       0.000210
                                                         0.305164       0.000269
                                                         1.013846       0.004006
                                                         3.279754       0.000000

                          2       1    1s                1.696440      -0.449498
                                                         0.050328      -0.010005
                                                         0.553126      -0.139107

                          2       2    2s                1.696440      -1.033598
                                                         0.050328       0.030134
                                                         0.553126      -0.271692

                          2       3    3s                1.696440       0.026311
                                                         0.050328       0.075714
                                                         0.553126      -0.019968

                          3       1    1s         

     AE Potential information for                                            ALL

       Description:                                       All-electron potential
                                          Krack, Parrinello, PCCP 2, 2105 (2000)

       Gaussian exponent of the core charge distribution:               8.240971
       Electronic configuration (s p d ...):                           5   6   0

  2. Atomic kind: h                                     Number of atoms:       2

     Orbital Basis Set                                        aug-DZVP-MOLOPT-ae

       Number of orbital shell sets:                                           1
       Number of orbital shells:                                               5
       Number of primitive Cartesian functions:                                5
       Number of Cartesian basis functions:                                    9
       Number of spherical basis functions:                                    9
       Norm type:                                                              2

       Normalised Cartesian orbitals:

                        Set   Shell   Orbital            Exponent    Coefficient

                          1       1    2s                0.035000       0.000000
                                                         0.111920       0.009149
                                                         0.374948       0.205449
                                                         1.446686       0.373852
                                                        12.248855       0.310040

                          1       2    3s                0.035000       0.000000
                                                         0.111920       0.143650
                                                         0.374948       0.007287
                                                         1.446686      -0.188851
                                                        12.248855      -0.144753

                          1       3    4s                0.035000       0.090463
                                                         0.111920      -0.203934
                                                         0.374948      -0.000376
                                                         1.446686      -0.000051
                                                        12.248855       0.000000

                          1       4    3px               0.035000       0.000000
                                                         0.111920       0.007225
                                                         0.374948       0.280770
                                                         1.446686       0.896497
                                                        12.248855      -0.764411
                          1       4    3py               0.035000       0.000000
                                                         0.111920       0.007225
                                                         0.374948       0.280770
                                                         1.446686       0.896497
                                                        12.248855      -0.764411
                          1       4    3pz               0.035000       0.000000
                                                         0.111920       0.007225
                                                         0.374948       0.280770
                                                         1.446686       0.896497
                                                        12.248855      -0.764411

                          1       5    4px               0.035000       0.011331
                                                         0.111920       0.048737
                                                         0.374948       0.028490
                                                         1.446686       0.035587
                                                        12.248855       0.000000
                          1       5    4py               0.035000       0.011331
                                                         0.111920       0.048737
                                                         0.374948       0.028490
                                                         1.446686       0.035587
                                                        12.248855       0.000000
                          1       5    4pz               0.035000       0.011331
                                                         0.111920       0.048737
                                                         0.374948       0.028490
                                                         1.446686       0.035587
                                                        12.248855       0.000000

     RI Auxiliary Basis Set             RI_aug-DZVP-MOLOPT-ae_N_RI_009_s_p_d_f_g

       Number of orbital shell sets:                                           5
       Number of orbital shells:                                               5
       Number of primitive Cartesian functions:                                5
       Number of Cartesian basis functions:                                    9
       Number of spherical basis functions:                                    9
       Norm type:                                                              2

       Normalised Cartesian orbitals:

                        Set   Shell   Orbital            Exponent    Coefficient

                          1       1    4px               0.330315       0.356944
                          1       1    4py               0.330315       0.356944
                          1       1    4pz               0.330315       0.356944

                          2       1    1s                0.373568       0.340555

                          3       1    2s                0.886477       0.651119

                          4       1    5px               1.451319       2.270616
                          4       1    5py               1.451319       2.270616
                          4       1    5pz               1.451319       2.270616

                          5       1    3s                5.028848       2.393379

       Atomic covalent radius [Angstrom]:                                  0.320

       Atomic van der Waals radius [Angstrom]:                             1.090

     The atoms of this atomic kind are PAW atoms (GAPW):
       Hard Gaussian function radius:                                      1.200
       Rho0 radius:                                                        1.200
       Maximum GTO radius used for PAW projector construction:            24.566

     GAPW Soft Basis Set                                 aug-DZVP-MOLOPT-ae_soft

       Number of orbital shell sets:                                           1
       Number of orbital shells:                                               5
       Number of primitive Cartesian functions:                                4
       Number of Cartesian basis functions:                                    9
       Number of spherical basis functions:                                    9
       Norm type:                                                              2

       Normalised Cartesian orbitals:

                        Set   Shell   Orbital            Exponent    Coefficient

                          1       1    2s                0.035000       0.000000
                                                         0.111920       0.009149
                                                         0.374948       0.205449
                                                         1.446686       0.373852

                          1       2    3s                0.035000       0.000000
                                                         0.111920       0.143650
                                                         0.374948       0.007287
                                                         1.446686      -0.188851

                          1       3    4s                0.035000       0.090463
                                                         0.111920      -0.203934
                                                         0.374948      -0.000376
                                                         1.446686      -0.000051

                          1       4    3px               0.035000       0.000000
                                                         0.111920       0.007225
                                                         0.374948       0.280770
                                                         1.446686       0.896497
                          1       4    3py               0.035000       0.000000
                                                         0.111920       0.007225
                                                         0.374948       0.280770
                                                         1.446686       0.896497
                          1       4    3pz               0.035000       0.000000
                                                         0.111920       0.007225
                                                         0.374948       0.280770
                                                         1.446686       0.896497

                          1       5    4px               0.035000       0.011331
                                                         0.111920       0.048737
                                                         0.374948       0.028490
                                                         1.446686       0.035587
                          1       5    4py               0.035000       0.011331
                                                         0.111920       0.048737
                                                         0.374948       0.028490
                                                         1.446686       0.035587
                          1       5    4pz               0.035000       0.011331
                                                         0.111920       0.048737
                                                         0.374948       0.028490
                                                         1.446686       0.035587

     AE Potential information for                                            ALL

       Description:                                       All-electron potential
                                          Krack, Parrinello, PCCP 2, 2105 (2000)

       Gaussian exponent of the core charge distribution:              12.500000
       Electronic configuration (s p d ...):                           1   0   0


 MOLECULE KIND INFORMATION


 All atoms are their own molecule, skipping detailed information


 TOTAL NUMBERS AND MAXIMUM NUMBERS

  Total number of            - Atomic kinds:                                   2
                             - Atoms:                                          4
                             - Shell sets:                                     8
                             - Shells:                                        32
                             - Primitive Cartesian functions:                 44
                             - Cartesian basis functions:                     90
                             - Spherical basis functions:                     80

  Maximum angular momentum of the orbital basis functions:                     3


 MODULE QUICKSTEP: ATOMIC COORDINATES IN ANGSTROM

   Atom Kind Element         X             Y             Z       Z(eff)     Mass
      1    1 na   11     15.000000     13.579036     15.000000  11.0000  22.9898
      2    1 na   11     15.000000     16.420964     15.000000  11.0000  22.9898
      3    2 h     1     13.409964     15.000000     15.000000   1.0000   1.0079
      4    2 h     1     16.590036     15.000000     15.000000   1.0000   1.0079



 SCF PARAMETERS         Density guess:                                    ATOMIC
                        --------------------------------------------------------
                        max_scf:                                             500
                        max_scf_history:                                       0
                        max_diis:                                              4
                        --------------------------------------------------------
                        eps_scf:                                        1.00E-06
                        eps_scf_history:                                0.00E+00
                        eps_diis:                                       1.00E-01
                        eps_eigval:                                     1.00E-05
                        --------------------------------------------------------
                        level_shift [a.u.]:                             0.000000
                        added MOs                                        68    0
                        --------------------------------------------------------
                        Mixing method:                            BROYDEN_MIXING
                                                charge density mixing in g-space
                        --------------------------------------------------------
                        Smear method:                                FERMI_DIRAC
                        Electronic temperature [K]:                        300.0
                        Electronic temperature [a.u.]:                  9.50E-04
                        Accuracy threshold:                             1.00E-10
                        --------------------------------------------------------
                        No outer SCF

 PW_GRID| Information for grid number                                          1
 PW_GRID| Grid distributed over                                    48 processors
 PW_GRID| Real space group dimensions                                    48    1
 PW_GRID| the grid is blocked:                                                NO
 PW_GRID| Cutoff [a.u.]                                                    250.0
 PW_GRID| spherical cutoff:                                                   NO
 PW_GRID|   Bounds   1           -202     202                Points:         405
 PW_GRID|   Bounds   2           -202     202                Points:         405
 PW_GRID|   Bounds   3           -202     202                Points:         405
 PW_GRID| Volume element (a.u.^3)  0.2743E-02     Volume (a.u.^3)    182205.0337
 PW_GRID| Grid span                                                    FULLSPACE
 PW_GRID|   Distribution                         Average         Max         Min
 PW_GRID|   G-Vectors                          1383960.9     1384290     1383885
 PW_GRID|   G-Rays                                3417.2        3418        3417
 PW_GRID|   Real Space Points                  1383960.9     1476225     1312200

 PW_GRID| Information for grid number                                          2
 PW_GRID| Number of the reference grid                                         1
 PW_GRID| Grid distributed over                                    48 processors
 PW_GRID| Real space group dimensions                                    48    1
 PW_GRID| the grid is blocked:                                                NO
 PW_GRID| Cutoff [a.u.]                                                     83.3
 PW_GRID| spherical cutoff:                                                   NO
 PW_GRID|   Bounds   1           -120     119                Points:         240
 PW_GRID|   Bounds   2           -120     119                Points:         240
 PW_GRID|   Bounds   3           -120     119                Points:         240
 PW_GRID| Volume element (a.u.^3)  0.1318E-01     Volume (a.u.^3)    182205.0337
 PW_GRID| Grid span                                                    FULLSPACE
 PW_GRID|   Distribution                         Average         Max         Min
 PW_GRID|   G-Vectors                           288000.0      288720      287520
 PW_GRID|   G-Rays                                1200.0        1203        1198
 PW_GRID|   Real Space Points                   288000.0      288000      288000

 PW_GRID| Information for grid number                                          3
 PW_GRID| Number of the reference grid                                         1
 PW_GRID| Grid distributed over                                    48 processors
 PW_GRID| Real space group dimensions                                    48    1
 PW_GRID| the grid is blocked:                                                NO
 PW_GRID| Cutoff [a.u.]                                                     27.8
 PW_GRID| spherical cutoff:                                                   NO
 PW_GRID|   Bounds   1            -67      67                Points:         135
 PW_GRID|   Bounds   2            -67      67                Points:         135
 PW_GRID|   Bounds   3            -67      67                Points:         135
 PW_GRID| Volume element (a.u.^3)  0.7406E-01     Volume (a.u.^3)    182205.0337
 PW_GRID| Grid span                                                    FULLSPACE
 PW_GRID|   Distribution                         Average         Max         Min
 PW_GRID|   G-Vectors                            51257.8       51570       51030
 PW_GRID|   G-Rays                                 379.7         382         378
 PW_GRID|   Real Space Points                    51257.8       54675       36450

 PW_GRID| Information for grid number                                          4
 PW_GRID| Number of the reference grid                                         1
 PW_GRID| Grid distributed over                                    48 processors
 PW_GRID| Real space group dimensions                                    48    1
 PW_GRID| the grid is blocked:                                                NO
 PW_GRID| Cutoff [a.u.]                                                      9.3
 PW_GRID| spherical cutoff:                                                   NO
 PW_GRID|   Bounds   1            -40      39                Points:          80
 PW_GRID|   Bounds   2            -40      39                Points:          80
 PW_GRID|   Bounds   3            -40      39                Points:          80
 PW_GRID| Volume element (a.u.^3)  0.3559         Volume (a.u.^3)    182205.0337
 PW_GRID| Grid span                                                    FULLSPACE
 PW_GRID|   Distribution                         Average         Max         Min
 PW_GRID|   G-Vectors                            10666.7       10800       10560
 PW_GRID|   G-Rays                                 133.3         135         132
 PW_GRID|   Real Space Points                    10666.7       12800        6400

 POISSON| Solver                                                         WAVELET
 POISSON| Wavelet| Scaling function                                           40
 POISSON| Periodicity                                                       NONE

 RS_GRID| Information for grid number                                          1
 RS_GRID|   Bounds   1           -202     202                Points:         405
 RS_GRID|   Bounds   2           -202     202                Points:         405
 RS_GRID|   Bounds   3           -202     202                Points:         405
 RS_GRID| Real space distribution over                                  3 groups
 RS_GRID| Real space distribution along direction                              1
 RS_GRID| Border size                                                         34
 RS_GRID| Real space distribution over                                  4 groups
 RS_GRID| Real space distribution along direction                              2
 RS_GRID| Border size                                                         34
 RS_GRID| Real space distribution over                                  4 groups
 RS_GRID| Real space distribution along direction                              3
 RS_GRID| Border size                                                         34
 RS_GRID|   Distribution                         Average         Max         Min
 RS_GRID|   Planes                                 203.0         203         203
 RS_GRID|   Distribution                         Average         Max         Min
 RS_GRID|   Planes                                 169.2         170         169
 RS_GRID|   Distribution                         Average         Max         Min
 RS_GRID|   Planes                                 169.2         170         169

 RS_GRID| Information for grid number                                          2
 RS_GRID|   Bounds   1           -120     119                Points:         240
 RS_GRID|   Bounds   2           -120     119                Points:         240
 RS_GRID|   Bounds   3           -120     119                Points:         240
 RS_GRID| Real space distribution over                                  3 groups
[...]
 Comput. Phys. Commun. 187, 120-129 (2015).
 Enabling simulation at the fifth rung of DFT: Large scale RPA calculations with 
 excellent time to solution.
 https://doi.org/10.1016/j.cpc.2014.10.021

 J. Hutter, M. Iannuzzi, F. Schiffmann, J. VandeVondele.
 WIREs Comput Mol Sci. 4, 15-25 (2014).
 CP2K: atomistic simulations of condensed matter systems.
 https://doi.org/10.1002/wcms.1159

 U. Borstnik, J. VandeVondele, V. Weber, J. Hutter.
 Parallel Comput. 40, 47-58 (2014).
 Sparse matrix multiplication: The distributed block-compressed sparse row 
 library.
 https://doi.org/10.1016/j.parco.2014.03.012

 M. Del Ben, J. Hutter, J. VandeVondele.
 J. Chem. Theory Comput. 9, 2654-2671 (2013).
 Electron Correlation in the Condensed Phase from a Resolution of Identity 
 Approach Based on the Gaussian and Plane Waves Scheme.
 https://doi.org/10.1021/ct4002202

 M. Del Ben, J. Hutter, J. VandeVondele.
 J. Chem. Theory Comput. 8, 4177-4188 (2012).
 Second-Order Moller-Plesset Perturbation Theory in the Condensed Phase: An 
 Efficient and Massively Parallel Gaussian and Plane Waves Approach.
 https://doi.org/10.1021/ct300531w

 M. Guidon, J. Hutter, J. VandeVondele.
 J. Chem. Theory Comput. 5, 3010-3021 (2009).
 Robust Periodic Hartree-Fock Exchange for Large-Scale Simulations Using 
 Gaussian Basis Sets.
 https://doi.org/10.1021/ct900494g

 M. Guidon, F. Schiffmann, J. Hutter, J. VandeVondele.
 J. Chem. Phys. 128, 214104 (2008).
 Ab initio molecular dynamics using hybrid density functionals.
 https://doi.org/10.1063/1.2931945

 L. Genovese, T. Deutsch, S. Goedecker.
 J. Chem. Phys. 127, 054704 (2007).
 Efficient and accurate three-dimensional Poisson solver for surface problems.
 https://doi.org/10.1063/1.2754685

 J. VandeVondele, J. Hutter.
 J. Chem. Phys. 127, 114105 (2007).
 Gaussian basis sets for accurate calculations on molecular systems in gas and 
 condensed phases.
 https://doi.org/10.1063/1.2770708

 L. Genovese, T. Deutsch, A. Neelov, S. Goedecker, G. Beylkin.
 J. Chem. Phys. 125, 074105 (2006).
 Efficient solution of Poisson's equation with free boundary conditions.
 https://doi.org/10.1063/1.2335442

 M. Frigo, S. G. Johnson.
 Proc. IEEE 93, 216-231 (2005).
 The design and implementation of FFTW3.
 https://doi.org/10.1109/JPROC.2004.840301

 M. Krack, M. Parrinello.
 Phys. Chem. Chem. Phys. 2, 2105-2112 (2000).
 All-electron ab-initio molecular dynamics.
 https://doi.org/10.1039/b001167n

 G. Lippert, J. Hutter, M. Parrinello.
 Theor. Chem. Acc. 103, 124-140 (1999).
 The Gaussian and augmented-plane-wave density functional method for ab initio 
 molecular dynamics simulations.
 https://doi.org/10.1007/s002140050523

 J. P. Perdew, K. Burke, M. Ernzerhof.
 Phys. Rev. Lett. 77, 3865-3868 (1996).
 Generalized gradient approximation made simple.
 https://doi.org/10.1103/PhysRevLett.77.3865


 -------------------------------------------------------------------------------
 -                                                                             -
 -                                T I M I N G                                  -
 -                                                                             -
 -------------------------------------------------------------------------------
 SUBROUTINE                       CALLS  ASD         SELF TIME        TOTAL TIME
                                MAXIMUM       AVERAGE  MAXIMUM  AVERAGE  MAXIMUM
 CP2K                                 1  1.0    0.045    0.079  252.571  252.572
 qs_energies                          1  2.0    0.001    0.001  251.640  251.882
 scf_env_do_scf                       1  3.0    0.000    0.000  247.479  247.480
 scf_env_do_scf_inner_loop           67  4.0    0.002    0.004  247.479  247.480
 qs_ks_build_kohn_sham_matrix        68  7.0    0.010    0.012  199.644  199.655
 qs_ks_update_qs_env                 67  5.0    0.000    0.001  198.203  198.213
 rebuild_ks_matrix                   67  6.0    0.000    0.000  198.197  198.208
 fft_wrap_pw1pw2                   1419  9.9    0.031    0.044   82.367   83.161
 fft_wrap_pw1pw2_250               1011 11.1    3.464    3.896   79.602   80.249
 fft3d_ps                          1419 11.9   31.921   35.230   66.655   67.315
 pw_poisson_solve                    68  8.0    1.206    1.352   59.399   59.432
 hfx_ks_matrix                       68  8.0    0.003    0.003   48.989   49.066
 integrate_four_center               68  9.0    1.542    3.159   48.984   49.062
 qs_vxc_create                       68  8.0    0.001    0.001   48.955   48.955
 xc_vxc_pw_create                    67  9.0    0.836    0.942   48.954   48.955
 mp_sync                            773  9.4   39.533   42.829   39.533   42.829
 integrate_four_center_main          68 10.0    0.456    8.835    1.907   40.199
 ps_wavelet_solve                    68  9.0   30.558   34.476   39.081   39.362
 xc_pw_derive                       402 11.0    0.004    0.005   35.798   36.516
 integrate_four_center_bin         6126 11.0    1.451   31.363    1.451   31.363
 mp_alltoall_d54                     68 10.0    5.657   30.514    5.657   30.514
 mp_alltoall_z22v                  1419 13.9   27.065   30.016   27.065   30.016
 qs_rho_update_rho_low               68  5.0    0.001    0.001   25.399   25.399
 calculate_rho_elec                  68  6.0    0.665    0.709   25.239   25.239
 xc_pw_divergence                    67 10.0    0.002    0.003   24.350   25.078
 xc_rho_set_and_dset_create          67 10.0    0.605    0.764   23.228   24.265
 gspace_mixing                       66  5.0    0.645    0.687   23.546   23.546
 x_to_yz                            742 13.1    5.395    5.855   18.335   18.948
 yz_to_x                            677 12.8    2.251    2.719   16.376   18.717
 density_rs2pw                       68  7.0    0.004    0.005   17.818   18.174
 broyden_mixing                      66  6.0   17.303   17.585   17.602   17.711
 sum_up_and_integrate                68  8.0    0.001    0.001   14.264   14.292
 integrate_v_rspace                  68  9.0    0.002    0.002   14.057   14.177
 potential_pw2rs                     68 10.0    0.035    0.041   13.368   13.505
 prepare_gapw_den                    68  8.0    0.001    0.001   13.176   13.373
 put_rho0_on_grid                    68  9.0    0.670    0.722    9.809   10.006
 transfer_pw2rs                     341 10.6    0.005    0.006    9.538    9.725
 transfer_rs2pw                     341  8.4    0.009    0.012    8.442    8.717
 mp_waitany                        9020 11.5    7.460    8.346    7.460    8.346
 mp_sum_d                          2483  6.4    5.921    6.960    5.921    6.960
 grid_collocate_task_list            68  7.0    6.451    6.931    6.451    6.931
 transfer_pw2rs_250                 137 10.9    1.948    2.138    6.191    6.542
 mp_alltoall_d11v                  1256  9.4    3.172    6.280    3.172    6.280
 transfer_rs2pw_250                 137 10.0    2.156    2.335    5.814    6.082
 calc_screening_functions             1 10.0    5.023    5.428    5.232    5.635
 xc_functional_eval                 335 10.9    0.001    0.001    4.835    5.555
 pbe_lda_eval                       335 11.9    4.835    5.555    4.835    5.555
 pw_scatter_p                       742 12.1    5.323    5.423    5.323    5.423
 mp_alltoall_d45                     69 10.0    2.646    5.361    2.646    5.361
 pw_gather_p                        677 11.8    4.472    5.135    4.472    5.135
 integrate_vhg0_rspace               68  8.0    0.121    0.140    4.316    4.334
 pw_derive                          606 11.3    3.923    4.154    3.923    4.154
 calculate_vxc_atom                  68  8.0    0.028    0.232    3.863    3.864
 gaVxcgb_GC                         134  9.0    0.147    3.525    0.147    3.525
 mp2_main                             1  3.0    0.000    0.000    3.204    3.446
 calculate_rho_atom                 136  9.0    0.475    3.036    0.475    3.036
 mp_sum_dv                         4984 10.8    2.656    2.813    2.656    2.813
 cp2k_distribution_to_z_slices       68  9.0    1.264    1.333    2.464    2.634
 fft_wrap_pw1pw2_90                 136 10.5    0.100    0.124    2.215    2.524
 pw_copy                           1015 10.6    2.305    2.435    2.305    2.435
 mp_waitall_1                     21070 12.0    1.085    2.225    1.085    2.225
 pw_poisson_set                      69  8.9    0.002    0.003    2.171    2.204
 transfer_pw2rs_90                   68 12.0    0.372    0.421    1.444    1.854
 rs_grid_zero                       342 11.2    1.783    1.838    1.783    1.838
 pw_axpy                            675  9.3    1.514    1.611    1.514    1.611
 pw_copy_to_array                   677 11.8    1.396    1.568    1.396    1.568
 mp2_gpw_main                         1  4.0    0.000    0.000    1.553    1.563
 transfer_pw2rs_30                   68 12.0    0.922    0.990    1.412    1.507
 compute_vec_Sigma_x_minus_vxc_       1  4.0    0.000    0.000    1.451    1.451
 transfer_rs2pw_90                   68  9.0    0.335    0.377    1.192    1.341
 pw_integral_ab_c1d_c1d_gs           68  9.0    0.997    1.007    1.220    1.319
 mp_sum_dm                          888  7.6    0.801    1.203    0.801    1.203
 pw_poisson_rebuild                  68  9.0    0.000    0.000    1.111    1.145
 ps_wavelet_create                    1 10.0    0.000    0.000    1.111    1.145
 RS_z_slice_distribution              1 11.0    0.991    1.041    1.111    1.145
 rpa_ri_compute_en                    1  5.0    0.000    0.000    1.129    1.129
 rpa_num_int                          1  6.0    0.001    0.001    1.123    1.123
 pw_copy_from_array                 742 12.1    0.907    1.120    0.907    1.120
 transfer_rs2pw_30                   68  9.0    0.531    0.555    1.090    1.115
 mp_sendrecv_dv                    6392 10.0    0.786    0.827    0.786    0.827
 mp_isend_dv                       8587 11.7    0.432    0.788    0.432    0.788
 Vh_1c_gg_integrals                  68  8.0    0.026    0.517    0.623    0.781
 qs_scf_new_mos                      67  5.0    0.001    0.001    0.754    0.767
 compute_GW_self_energy             100  7.0    0.001    0.001    0.695    0.747
 pw_zero                            404 10.3    0.647    0.717    0.647    0.717
 rs_gather_matrices                  68 10.0    0.001    0.004    0.573    0.700
 compute_GW_self_energy_deep        100  8.0    0.433    0.483    0.621    0.674
 cp_fm_syevd                         73  7.0    0.000    0.001    0.668    0.669
 grid_integrate_task_list            68 10.0    0.114    0.664    0.114    0.664
 cp_fm_redistribute_end              73  8.0    0.323    0.615    0.325    0.618
 init_scf_run                         1  3.0    0.000    0.000    0.614    0.614
 mp_irecv_dm3                      2460 11.5    0.336    0.610    0.336    0.610
 scf_env_initial_rho_setup            1  4.0    0.000    0.000    0.602    0.603
 cp_fm_syevd_base                    73  8.0    0.291    0.582    0.291    0.582
 mp_sum_l                           922  6.0    0.426    0.550    0.426    0.550
 integrate_four_center_load          68 10.0    0.000    0.001    0.404    0.524
 hfx_load_balance                     1 11.0    0.000    0.000    0.404    0.524
 hfx_load_balance_range               1 12.0    0.000    0.000    0.400    0.520
 mp_isend_dm3                      2460 11.5    0.223    0.516    0.223    0.516
 transfer_pw2rs_10                   68 12.0    0.233    0.244    0.486    0.506
 eigensolver_symm                    68  6.0    0.002    0.002    0.504    0.506
 mp_isendrecv_dv                  12784 12.0    0.237    0.485    0.237    0.485
 mp_max_i                           581  2.9    0.344    0.484    0.344    0.484
 qs_init_subsys                       1  2.0    0.004    0.004    0.440    0.441
 fft_wrap_pw1pw2_30                 136 10.5    0.016    0.018    0.419    0.432
 qs_env_setup                         1  3.0    0.000    0.000    0.425    0.427
 qs_env_rebuild_pw_env                2  3.5    0.000    0.000    0.424    0.425
 pw_env_rebuild                       1  5.0    0.001    0.001    0.424    0.425
 powell_optimize                 153825 11.0    0.380    0.416    0.380    0.416
 mp_sum_i                            19  9.5    0.243    0.415    0.243    0.415
 restraint_control                    1  2.0    0.000    0.000    0.242    0.414
 mp2_main_alloc_hfx                   1  4.0    0.172    0.414    0.172    0.414
 pw_grid_setup                        4  6.0    0.000    0.000    0.412    0.414
 pw_grid_setup_internal               4  7.0    0.010    0.013    0.412    0.413
 mp2_ri_gpw_compute_in                1  5.0    0.000    0.000    0.407    0.407
 mp2_ri_gpw_compute_in_loop           1  6.0    0.000    0.000    0.402    0.402
 contract_B_L                         4  7.0    0.001    0.001    0.290    0.378
 scale_and_distribute               136 10.0    0.340    0.361    0.340    0.361
 calc_pair_dist_radii                 1 10.0    0.164    0.166    0.335    0.351
 transfer_rs2pw_10                   68  9.0    0.111    0.119    0.337    0.347
 calculate_rho0_atom                136  9.0    0.327    0.338    0.327    0.338
 pw_grid_sort                         4  8.0    0.223    0.225    0.318    0.321
 mp_cart_create                     378 10.4    0.228    0.316    0.228    0.316
 dbt_pgrid_create_expert             84 10.8    0.000    0.000    0.212    0.300
 mp2_eri_3c_integrate                 1  7.0    0.000    0.000    0.096    0.297
 integrate_set_3c                   123  8.0    0.090    0.281    0.096    0.297
 parallel_gemm_fm                   354  8.5    0.000    0.001    0.281    0.290
 parallel_gemm_fm_gemm              354  9.5    0.000    0.001    0.281    0.289
 cp_fm_gemm                         354 10.5    0.280    0.289    0.280    0.289
 start_bse_calculation                1  7.0    0.000    0.000    0.237    0.237
 pw_scale                           269  9.5    0.174    0.223    0.174    0.223
 qs_energies_init_hamiltonians        1  3.0    0.000    0.000    0.222    0.222
 build_core_hamiltonian_matrix        1  4.0    0.000    0.000    0.217    0.217
 overlap_condnum                      1  5.0    0.000    0.000    0.214    0.215
 arnoldi_conjugate_gradient           5  6.0    0.005    0.006    0.180    0.180
 calculate_dm_sparse                 67  6.0    0.000    0.000    0.165    0.167
 cp_dbcsr_plus_fm_fm_t               67  7.0    0.001    0.001    0.164    0.166
 calculate_rho_atom_coeff            68  6.0    0.023    0.040    0.159    0.159
 mixing_init                          1  5.0    0.146    0.155    0.155    0.155
 rpa_num_int_RPA_matrix_operati     100  7.0    0.001    0.002    0.135    0.135
 create_qs_kind_set                   1  2.0    0.000    0.000    0.130    0.131
 read_qs_kind                         2  3.0    0.058    0.061    0.130    0.131
 update_ks_atom                      68  8.0    0.014    0.026    0.109    0.127
 dbcsr_multiply_generic             104  8.1    0.005    0.005    0.122    0.127
 scf_post_calculation_gpw             1  3.0    0.000    0.000    0.120    0.120
 write_available_results              1  4.0    0.000    0.000    0.120    0.120
 write_mo_free_results                1  5.0    0.013    0.016    0.120    0.120
 fft_wrap_pw1pw2_10                 136 10.5    0.004    0.004    0.100    0.119
 cp_fm_power                          2  7.5    0.002    0.003    0.115    0.115
 diagonalize_C                        1  8.0    0.000    0.000    0.114    0.114
 dbcsr_sym_matrix_vector_mult       725  7.0    0.011    0.013    0.097    0.109
 mp_bcast_dm                        544  9.0    0.094    0.109    0.094    0.109
 create_hermitian_form_of_ABBA        1  8.0    0.000    0.000    0.107    0.107
 copy_dbcsr_to_fm                    94  6.5    0.002    0.002    0.094    0.107
 dbcsr_complete_redistribute        232  8.4    0.010    0.012    0.104    0.106
 xc_pw_smooth                        67 10.0    0.000    0.000    0.070    0.097
 sort_shells                          4  9.0    0.095    0.096    0.095    0.096
 integrate_four_center_getP          68 10.0    0.006    0.006    0.077    0.095
 vxc_of_r_new                       268  9.0    0.001    0.012    0.004    0.087
 calc_mat_Q                         100  8.0    0.000    0.000    0.082    0.084
 contract_S_to_Q                    100  9.0    0.000    0.000    0.081    0.083
 parser_read_line                 11157  4.0    0.004    0.004    0.072    0.076
 parser_read_line_low                18  5.0    0.009    0.028    0.068    0.072
 dbt_total                            8  8.0    0.000    0.000    0.068    0.068
 broadcast_input_information         18  6.0    0.019    0.022    0.059    0.068
 cp_fm_cholesky_invert              101  8.0    0.064    0.067    0.064    0.067
 dbcsr_add_d                       1141  7.1    0.001    0.001    0.012    0.065
 dbcsr_add_anytype                 1141  8.1    0.002    0.008    0.011    0.064
 dbt_contract                         4  9.0    0.001    0.001    0.063    0.063
 make_m2s                           208  9.1    0.003    0.003    0.059    0.062
 mp_irecv_dv                       8629 11.7    0.030    0.061    0.030    0.061
 copy_fm_to_dbcsr                   138  8.1    0.001    0.001    0.059    0.061
 dbcsr_desymmetrize_deep             96  7.4    0.002    0.003    0.048    0.060
 dbcsr_finalize                    2392 10.6    0.007    0.019    0.024    0.058
 hirshfeld_integration                1  6.0    0.002    0.008    0.056    0.056
 cp_fm_redistribute_start            73  8.0    0.040    0.043    0.052    0.055
 integrate_four_center_dist_KS       68 10.0    0.006    0.006    0.054    0.055
 pw_grid_assign                       4  8.0    0.050    0.052    0.051    0.053
 calculate_hirshfeld_normalizat       1  6.0    0.002    0.007    0.047    0.051
 offload_free_buffer                 76  8.4    0.032    0.050    0.032    0.050
 cp_fm_to_fm_submat_general         112 10.1    0.044    0.050    0.044    0.050
 compute_Erpa_by_freq_int           100  8.0    0.001    0.001    0.047    0.048
 dbt_tas_multiply                     8 11.5    0.000    0.000    0.047    0.047
 dbt_tas_total                        8 12.5    0.001    0.002    0.047    0.047
 cp_fm_cholesky_decompose           102  9.0    0.045    0.046    0.045    0.046
 multiply_cannon                    104  9.1    0.008    0.008    0.041    0.043
 dbcsr_col_vec_to_rep_row           725  8.0    0.005    0.006    0.028    0.040
 mp_alltoall_i22                    328  9.1    0.025    0.038    0.025    0.038
 mp_alltoall_i11v                   792  9.3    0.033    0.033    0.033    0.033
 mp_bcast_i_src                      72  7.0    0.020    0.030    0.020    0.030
 dbcsr_rep_row_to_rep_col_vec       725  8.0    0.004    0.004    0.019    0.030
 make_images                        208 10.1    0.006    0.006    0.027    0.030
 mp_comm_split_direct                48 14.5    0.019    0.029    0.019    0.029
 dbcsr_merge_all                   1734 11.4    0.010    0.023    0.012    0.028
 mp_bcast_dv                        798  9.0    0.017    0.027    0.017    0.027
 multiply_cannon_loop               104 10.1    0.005    0.006    0.024    0.026
 -------------------------------------------------------------------------------

 The number of warnings for this run is : 1
 
 -------------------------------------------------------------------------------
  **** **** ******  **  PROGRAM ENDED AT                 2025-03-26 06:49:59.810
 ***** ** ***  *** **   PROGRAM RAN ON                              i05r07c05s01
 **    ****   ******    PROGRAM RAN BY                                   di38fab
 ***** **    ** ** **   PROGRAM PROCESS ID                               1421595
  **** **  *******  **  PROGRAM STOPPED IN /hppfs/scratch/04/di38fab/05_MOL/W4-1
                                           1+ALK/na2_h2/DZVP/GW+BSE/1e-4
