 DBCSR| CPU Multiplication driver                                           BLAS (U)
 DBCSR| Multrec recursion limit                                              512 (U)
 DBCSR| Multiplication stack size                                           1000 (D)
 DBCSR| Maximum elements for images                                    UNLIMITED (U)
 DBCSR| Multiplicative factor virtual images                                   1 (U)
 DBCSR| Use multiplication densification                                       T (D)
 DBCSR| Multiplication size stacks                                             3 (U)
 DBCSR| Use memory pool for CPU allocation                                     F (U)
 DBCSR| Number of 3D layers                                               SINGLE (U)
 DBCSR| Use MPI memory allocation                                              F (U)
 DBCSR| Use RMA algorithm                                                      F (U)
 DBCSR| Use Communication thread                                               T (U)
 DBCSR| Communication thread load                                             45 (D)
 DBCSR| MPI: My process id                                                     0
 DBCSR| MPI: Number of processes                                             128
 DBCSR| OMP: Current number of threads                                        12
 DBCSR| OMP: Max number of threads                                            12
 DBCSR| Split modifier for TAS multiplication algorithm                  1.0E+00 (U)


  **** **** ******  **  PROGRAM STARTED AT               2025-04-14 07:34:19.497
 ***** ** ***  *** **   PROGRAM STARTED ON                          i01r07c01s04
 **    ****   ******    PROGRAM STARTED BY                               di38fab
 ***** **    ** ** **   PROGRAM PROCESS ID                               1520229
  **** **  *******  **  PROGRAM STARTED IN /hppfs/scratch/04/di38fab/05_MOL/aUKB
                                           qsEOTmq69kFe5R_nOg/5k_set_final_qzvp/
                                           RIWJOW/aug-cc-pVQZ/TDDFT

 CP2K| version string:                 CP2K version 2025.1 (Development Version)
 CP2K| source code revision number:                             unknown revision
 CP2K| cp2kflags: omp libint fftw3 libxc parallel scalapack max_contr=4         
 CP2K| is freely available from                            https://www.cp2k.org/
 CP2K| Program compiled at                         Thu Apr 10 16:20:23 CEST 2025
 CP2K| Program compiled on                                               login01
 CP2K| Program compiled for                                        Supermuc-foss
 CP2K| Data directory path                  /hppfs/work/pn36zo/di38fab/cp2k/data
 CP2K| Input file name                                                    GW.inp

 GLOBAL| Force Environment number                                              1
 GLOBAL| Basis set file name            /hppfs/scratch/04/di38fab/04_TMD/BASIS_A
 GLOBAL| Potential file name            /hppfs/work/pn36zo/di38fab/cp2k/data/ALL
 GLOBAL| MM Potential file name                                     MM_POTENTIAL
 GLOBAL| Coordinate file name                                      __STD_INPUT__
 GLOBAL| Method name                                                        CP2K
 GLOBAL| Project name                                                       MoS2
 GLOBAL| Run type                                                         ENERGY
 GLOBAL| FFT library                                                       FFTW3
 GLOBAL| Diagonalization library                                       ScaLAPACK
 GLOBAL| DGEMM library                                                      BLAS
 GLOBAL| Orthonormality check for eigenvectors                          DISABLED
 GLOBAL| Matrix multiplication library                                 ScaLAPACK
 GLOBAL| All-to-all communication in single precision                          F
 GLOBAL| FFTs using library dependent lengths                                  F
 GLOBAL| Grid backend                                                       AUTO
 GLOBAL| Global print level                                               MEDIUM
 GLOBAL| MPI I/O enabled                                                       T
 GLOBAL| Total number of message passing processes                           128
 GLOBAL| Number of threads for this process                                   12
 GLOBAL| This output is from process                                           0
 GLOBAL| OpenMP stack size per thread (OMP_STACKSIZE)                    default
 GLOBAL| CPU model name             Intel(R) Xeon(R) Platinum 8174 CPU @ 3.10GHz

 MEMORY| system memory details [Kb]
 MEMORY|                        rank 0           min           max       average
 MEMORY| MemTotal             98436708      98436644      98436912      98436684
 MEMORY| MemFree              85440704      84580660      85766696      85086003
 MEMORY| Buffers                     0             0             0             0
 MEMORY| Cached                2353968       2348084       2568704       2378403
 MEMORY| Slab                  1114132       1114132       1274416       1218994
 MEMORY| SReclaimable           253752        251660        286140        275029
 MEMORY| MemLikelyFree        88048424      87223700      88386808      87739435


 *** Fundamental physical constants (SI units) ***

 *** Literature: B. J. Mohr and B. N. Taylor,
 ***             CODATA recommended values of the fundamental physical
 ***             constants: 2006, Web Version 5.1
 ***             http://physics.nist.gov/constants

 Speed of light in vacuum [m/s]                             2.99792458000000E+08
 Magnetic constant or permeability of vacuum [N/A**2]       1.25663706143592E-06
 Electric constant or permittivity of vacuum [F/m]          8.85418781762039E-12
 Planck constant (h) [J*s]                                  6.62606896000000E-34
 Planck constant (h-bar) [J*s]                              1.05457162825177E-34
 Elementary charge [C]                                      1.60217648700000E-19
 Electron mass [kg]                                         9.10938215000000E-31
 Electron g factor [ ]                                     -2.00231930436220E+00
 Proton mass [kg]                                           1.67262163700000E-27
 Fine-structure constant                                    7.29735253760000E-03
 Rydberg constant [1/m]                                     1.09737315685270E+07
 Avogadro constant [1/mol]                                  6.02214179000000E+23
 Boltzmann constant [J/K]                                   1.38065040000000E-23
 Atomic mass unit [kg]                                      1.66053878200000E-27
 Bohr radius [m]                                            5.29177208590000E-11

 *** Conversion factors ***

 [u] -> [a.u.]                                              1.82288848426455E+03
 [Angstrom] -> [Bohr] = [a.u.]                              1.88972613288564E+00
 [a.u.] = [Bohr] -> [Angstrom]                              5.29177208590000E-01
 [a.u.] -> [s]                                              2.41888432650478E-17
 [a.u.] -> [fs]                                             2.41888432650478E-02
 [a.u.] -> [J]                                              4.35974393937059E-18
 [a.u.] -> [N]                                              8.23872205491840E-08
 [a.u.] -> [K]                                              3.15774647902944E+05
 [a.u.] -> [kJ/mol]                                         2.62549961709828E+03
 [a.u.] -> [kcal/mol]                                       6.27509468713739E+02
 [a.u.] -> [Pa]                                             2.94210107994716E+13
 [a.u.] -> [bar]                                            2.94210107994716E+08
 [a.u.] -> [atm]                                            2.90362800883016E+08
 [a.u.] -> [eV]                                             2.72113838565563E+01
 [a.u.] -> [Hz]                                             6.57968392072181E+15
 [a.u.] -> [1/cm] (wave numbers)                            2.19474631370540E+05
 [a.u./Bohr**2] -> [1/cm]                                   5.14048714338585E+03
 

 CELL_TOP| Volume [angstrom^3]:                                     27000.000000
 CELL_TOP| Vector a [angstrom    30.000     0.000     0.000   |a| =    30.000000
 CELL_TOP| Vector b [angstrom     0.000    30.000     0.000   |b| =    30.000000
 CELL_TOP| Vector c [angstrom     0.000     0.000    30.000   |c| =    30.000000
 CELL_TOP| Angle (b,c), alpha [degree]:                                90.000000
 CELL_TOP| Angle (a,c), beta  [degree]:                                90.000000
 CELL_TOP| Angle (a,b), gamma [degree]:                                90.000000
 CELL_TOP| Numerically orthorhombic:                                         YES
 CELL_TOP| Periodicity                                                      NONE

 GENERATE|  Preliminary Number of Bonds generated:                             0
 GENERATE|  Achieved consistency in connectivity generation.

 CELL| Volume [angstrom^3]:                                         27000.000000
 CELL| Vector a [angstrom]:      30.000     0.000     0.000   |a| =    30.000000
 CELL| Vector b [angstrom]:       0.000    30.000     0.000   |b| =    30.000000
 CELL| Vector c [angstrom]:       0.000     0.000    30.000   |c| =    30.000000
 CELL| Angle (b,c), alpha [degree]:                                    90.000000
 CELL| Angle (a,c), beta  [degree]:                                    90.000000
 CELL| Angle (a,b), gamma [degree]:                                    90.000000
 CELL| Numerically orthorhombic:                                             YES
 CELL| Periodicity                                                          NONE

 CELL_REF| Volume [angstrom^3]:                                     27000.000000
 CELL_REF| Vector a [angstrom    30.000     0.000     0.000   |a| =    30.000000
 CELL_REF| Vector b [angstrom     0.000    30.000     0.000   |b| =    30.000000
 CELL_REF| Vector c [angstrom     0.000     0.000    30.000   |c| =    30.000000
 CELL_REF| Angle (b,c), alpha [degree]:                                90.000000
 CELL_REF| Angle (a,c), beta  [degree]:                                90.000000
 CELL_REF| Angle (a,b), gamma [degree]:                                90.000000
 CELL_REF| Numerically orthorhombic:                                         YES
 CELL_REF| Periodicity                                                      NONE

 *******************************************************************************
 *******************************************************************************
 **                                                                           **
 **     #####                         ##              ##                      **
 **    ##   ##            ##          ##              ##                      **
 **   ##     ##                       ##            ######                    **
 **   ##     ##  ##   ##  ##   #####  ##  ##   ####   ##    #####    #####    **
 **   ##     ##  ##   ##  ##  ##      ## ##   ##      ##   ##   ##  ##   ##   **
 **   ##  ## ##  ##   ##  ##  ##      ####     ###    ##   ######   ######    **
 **    ##  ###   ##   ##  ##  ##      ## ##      ##   ##   ##       ##        **
 **     #######   #####   ##   #####  ##  ##  ####    ##    #####   ##        **
 **           ##                                                    ##        **
 **                                                                           **
 **                                                ... make the atoms dance   **
 **                                                                           **
 **            Copyright (C) by CP2K developers group (2000-2025)             **
 **                      J. Chem. Phys. 152, 194103 (2020)                    **
 **                                                                           **
 *******************************************************************************

 DFT| Spin restricted Kohn-Sham (RKS) calculation                            RKS
 DFT| Multiplicity                                                             1
 DFT| Number of spin states                                                    1
 DFT| Charge                                                                   0
 DFT| Self-interaction correction (SIC)                                       NO
 DFT| Cutoffs: density                                              1.000000E-10
 DFT|          gradient                                             1.000000E-10
 DFT|          tau                                                  1.000000E-10
 DFT|          cutoff_smoothing_range                               0.000000E+00
 DFT| XC density smoothing                                                  NONE
 DFT| XC derivatives                                                          PW

 FUNCTIONAL| PBE:
 FUNCTIONAL| J.P.Perdew, K.Burke, M.Ernzerhof, Phys. Rev. Letter, vol. 77, n 18,
 FUNCTIONAL|  pp. 3865-3868, (1996)sx=0.750sc=1.000{spin unpolarized}           


 QS| Method:                                                                GAPW
 QS| Density plane wave grid type                        NON-SPHERICAL FULLSPACE
 QS| Number of grid levels:                                                    4
 QS| Density cutoff [a.u.]:                                                250.0
 QS| Multi grid cutoff [a.u.]: 1) grid level                               250.0
 QS|                           2) grid level                                83.3
 QS|                           3) grid level                                27.8
 QS|                           4) grid level                                 9.3
 QS| Grid level progression factor:                                          3.0
 QS| Relative density cutoff [a.u.]:                                        50.0
 QS| Interaction thresholds: eps_pgf_orb:                                1.0E-12
 QS|                         eps_filter_matrix:                          0.0E+00
 QS|                         eps_core_charge:                            1.0E-14
 QS|                         eps_rho_gspace:                             1.0E-12
 QS|                         eps_rho_rspace:                             1.0E-12
 QS|                         eps_gvg_rspace:                             1.0E-06
 QS|                         eps_ppl:                                    1.0E-02
 QS|                         eps_ppnl:                                   1.0E-08
 QS| GAPW|      One center basis from orbital basis primitives
 QS| GAPW|                   eps_fit:                                    1.0E-04
 QS| GAPW|                   eps_iso:                                    1.0E-12
 QS| GAPW|                   eps_svd:                                    1.0E-08
 QS| GAPW|                   eps_cpc:                                    1.0E-12
 QS| GAPW|   atom-r-grid: quadrature:                                     GC_LOG
 QS| GAPW|      atom-s-grid:  max l :                                          8
 QS| GAPW|      max_l_rho0 :                                                   2


 ATOMIC KIND INFORMATION

  1. Atomic kind: O                                     Number of atoms:       1

     Orbital Basis Set                                               aug-cc-pVQZ

       Number of orbital shell sets:                                          10
       Number of orbital shells:                                              20
       Number of primitive Cartesian functions:                               29
       Number of Cartesian basis functions:                                  105
       Number of spherical basis functions:                                   80
       Norm type:                                                              2

       Normalised Cartesian orbitals:

                        Set   Shell   Orbital            Exponent    Coefficient

                          1       1    1px               0.053480       0.036659
                          1       1    1py               0.053480       0.036659
                          1       1    1pz               0.053480       0.036659

                          2       1    1s                0.069590       0.096565

                          3       1    1dx2              0.154000       0.062312
                          3       1    1dxy              0.154000       0.107927
                          3       1    1dxz              0.154000       0.107927
                          3       1    1dy2              0.154000       0.062312
                          3       1    1dyz              0.154000       0.107927
                          3       1    1dz2              0.154000       0.062312

                          4       1    1px              63.420000       0.000000
                                                        14.660000       0.000000
                                                         4.459000       0.000000
                                                         1.531000       2.427499
                                                         0.530200       0.000000
                                                         0.175000       0.000000
                          4       1    1py              63.420000       0.000000
                                                        14.660000       0.000000
                                                         4.459000       0.000000
                                                         1.531000       2.427499
                                                         0.530200       0.000000
                                                         0.175000       0.000000
                          4       1    1pz              63.420000       0.000000
                                                        14.660000       0.000000
                                                         4.459000       0.000000
                                                         1.531000       2.427499
                                                         0.530200       0.000000
                                                         0.175000       0.000000

                          4       2    2px              63.420000       1.541868
                                                        14.660000       1.709122
                                                         4.459000       1.488326
                                                         1.531000       0.865964
                                                         0.530200       0.289113
                                                         0.175000       0.039518
                          4       2    2py              63.420000       1.541868
                                                        14.660000       1.709122
                                                         4.459000       1.488326
                                                         1.531000       0.865964
                                                         0.530200       0.289113
                                                         0.175000       0.039518
                          4       2    2pz              63.420000       1.541868
                                                        14.660000       1.709122
                                                         4.459000       1.488326
                                                         1.531000       0.865964
                                                         0.530200       0.289113
                                                         0.175000       0.039518

                          4       3    3px              63.420000       0.000000
                                                        14.660000       0.000000
                                                         4.459000       0.000000
                                                         1.531000       0.000000
                                                         0.530200       0.644896
                                                         0.175000       0.000000
                          4       3    3py              63.420000       0.000000
                                                        14.660000       0.000000
                                                         4.459000       0.000000
                                                         1.531000       0.000000
                                                         0.530200       0.644896
                                                         0.175000       0.000000
                          4       3    3pz              63.420000       0.000000
                                                        14.660000       0.000000
                                                         4.459000       0.000000
                                                         1.531000       0.000000
                                                         0.530200       0.644896
                                                         0.175000       0.000000

                          4       4    4px              63.420000       0.000000
                                                        14.660000       0.000000
                                                         4.459000       0.000000
                                                         1.531000       0.000000
                                                         0.530200       0.000000
                                                         0.175000       0.161338
                          4       4    4py              63.420000       0.000000
                                                        14.660000       0.000000
                                                         4.459000       0.000000
                                                         1.531000       0.000000
                                                         0.530200       0.000000
                                                         0.175000       0.161338
                          4       4    4pz              63.420000       0.000000
                                                        14.660000       0.000000
                                                         4.459000       0.000000
                                                         1.531000       0.000000
                                                         0.530200       0.000000
                                                         0.175000       0.161338

                          5       1    1s            61420.000000       0.250256
                                                      9199.000000       0.467274
                                                      2091.000000       0.807479
                                                       590.900000       1.299881
                                                       192.300000       1.929375
                                                        69.320000       2.498458
                                                        26.970000       2.574768
                                                        11.100000       1.727188
                                                         4.682000       0.492214
                                                         1.428000       0.016380
                                                         0.554700      -0.001146
                                                         0.206700       0.000208

                          5       2    2s            61420.000000       0.000000
                                                      9199.000000       0.000000
                                                      2091.000000       0.000000
                                                       590.900000       0.000000
                                                       192.300000       0.000000
                                                        69.320000       0.000000
                                                        26.970000       0.000000
                                                        11.100000       0.000000
                                                         4.682000       0.000000
                                                         1.428000       0.931014
                                                         0.554700       0.000000
                                                         0.206700       0.000000

                          5       3    3s            61420.000000       0.000000
                                                      9199.000000       0.000000
                                                      2091.000000       0.000000
                                                       590.900000       0.000000
                                                       192.300000       0.000000
                                                        69.320000       0.000000
                                                        26.970000       0.000000
                                                        11.100000       0.000000
                                                         4.682000       0.000000
                                                         1.428000       0.000000
                                                         0.554700       0.458093
                                                         0.206700       0.000000

                          5       4    4s            61420.000000      -0.055613
                                                      9199.000000      -0.106442
                                                      2091.000000      -0.182696
                                                       590.900000      -0.299644
                                                       192.300000      -0.447389
                                                        69.320000      -0.620860
                                                        26.970000      -0.700015
                                                        11.100000      -0.659178
                                                         4.682000      -0.261625
                                                         1.428000       0.269044
                                                         0.554700       0.268501
                                                         0.206700       0.060656

                          5       5    5s            61420.000000       0.000000
                                                      9199.000000       0.000000
                                                      2091.000000       0.000000
                                                       590.900000       0.000000
                                                       192.300000       0.000000
                                                        69.320000       0.000000
                                                        26.970000       0.000000
                                                        11.100000       0.000000
                                                         4.682000       0.000000
                                                         1.428000       0.000000
                                                         0.554700       0.000000
                                                         0.206700       0.218482

                          6       1    1fx3              0.324000       0.116595
                          6       1    1fx2y             0.324000       0.260715
                          6       1    1fx2z             0.324000       0.260715
                          6       1    1fxy2             0.324000       0.260715
                          6       1    1fxyz             0.324000       0.451571
                          6       1    1fxz2             0.324000       0.260715
                          6       1    1fy3              0.324000       0.116595
                          6       1    1fy2z             0.324000       0.260715
                          6       1    1fyz2             0.324000       0.260715
                          6       1    1fz3              0.324000       0.116595

                          7       1    1dx2              3.775000      16.827288
                                                         1.300000       0.000000
                                                         0.444000       0.000000
                          7       1    1dxy              3.775000      29.145718
                                                         1.300000       0.000000
                                                         0.444000       0.000000
                          7       1    1dxz              3.775000      29.145718
                                                         1.300000       0.000000
                                                         0.444000       0.000000
                          7       1    1dy2              3.775000      16.827288
                                                         1.300000       0.000000
                                                         0.444000       0.000000
                          7       1    1dyz              3.775000      29.145718
                                                         1.300000       0.000000
                                                         0.444000       0.000000
                          7       1    1dz2              3.775000      16.827288
                                                         1.300000       0.000000
                                                         0.444000       0.000000

                          7       2    2dx2              3.775000       0.000000
                                                         1.300000       2.605016
                                                         0.444000       0.000000
                          7       2    2dxy              3.775000       0.000000
                                                         1.300000       4.512019
                                                         0.444000       0.000000
                          7       2    2dxz              3.775000       0.000000
                                                         1.300000       4.512019
                                                         0.444000       0.000000
                          7       2    2dy2              3.775000       0.000000
                                                         1.300000       2.605016
                                                         0.444000       0.000000
                          7       2    2dyz              3.775000       0.000000
                                                         1.300000       4.512019
                                                         0.444000       0.000000
                          7       2    2dz2              3.775000       0.000000
                                                         1.300000       2.605016
                                                         0.444000       0.000000

                          7       3    3dx2              3.775000       0.000000
                                                         1.300000       0.000000
                                                         0.444000       0.397493
                          7       3    3dxy              3.775000       0.000000
                                                         1.300000       0.000000
                                                         0.444000       0.688478
                          7       3    3dxz              3.775000       0.000000
                                                         1.300000       0.000000
                                                         0.444000       0.688478
                          7       3    3dy2              3.775000       0.000000
                                                         1.300000       0.000000
                                                         0.444000       0.397493
                          7       3    3dyz              3.775000       0.000000
                                                         1.300000       0.000000
                                                         0.444000       0.688478
                          7       3    3dz2              3.775000       0.000000
                                                         1.300000       0.000000
                                                         0.444000       0.397493

                          8       1    1gx4              0.714000       0.440662
                          8       1    1gx3y             0.714000       1.165882
                          8       1    1gx3z             0.714000       1.165882
                          8       1    1gx2y2            0.714000       1.505147
                          8       1    1gx2yz            0.714000       2.606991
                          8       1    1gx2z2            0.714000       1.505147
                          8       1    1gxy3             0.714000       1.165882
                          8       1    1gxy2z            0.714000       2.606991
                          8       1    1gxyz2            0.714000       2.606991
                          8       1    1gxz3             0.714000       1.165882
                          8       1    1gy4              0.714000       0.440662
                          8       1    1gy3z             0.714000       1.165882
                          8       1    1gy2z2            0.714000       1.505147
                          8       1    1gyz3             0.714000       1.165882
                          8       1    1gz4              0.714000       0.440662

                          9       1    1fx3              2.666000      13.370258
                                                         0.859000       0.000000
                          9       1    1fx2y             2.666000      29.896805
                                                         0.859000       0.000000
                          9       1    1fx2z             2.666000      29.896805
                                                         0.859000       0.000000
                          9       1    1fxy2             2.666000      29.896805
                                                         0.859000       0.000000
                          9       1    1fxyz             2.666000      51.782785
                                                         0.859000       0.000000
                          9       1    1fxz2             2.666000      29.896805
                                                         0.859000       0.000000
                          9       1    1fy3              2.666000      13.370258
                                                         0.859000       0.000000
                          9       1    1fy2z             2.666000      29.896805
                                                         0.859000       0.000000
                          9       1    1fyz2             2.666000      29.896805
                                                         0.859000       0.000000
                          9       1    1fz3              2.666000      13.370258
                                                         0.859000       0.000000

                          9       2    2fx3              2.666000       0.000000
                                                         0.859000       1.045777
                          9       2    2fx2y             2.666000       0.000000
                                                         0.859000       2.338428
                          9       2    2fx2z             2.666000       0.000000
                                                         0.859000       2.338428
                          9       2    2fxy2             2.666000       0.000000
                                                         0.859000       2.338428
                          9       2    2fxyz             2.666000       0.000000
                                                         0.859000       4.050277
                          9       2    2fxz2             2.666000       0.000000
                                                         0.859000       2.338428
                          9       2    2fy3              2.666000       0.000000
                                                         0.859000       1.045777
                          9       2    2fy2z             2.666000       0.000000
                                                         0.859000       2.338428
                          9       2    2fyz2             2.666000       0.000000
                                                         0.859000       2.338428
                          9       2    2fz3              2.666000       0.000000
                                                         0.859000       1.045777

                         10       1    1gx4              1.846000       6.005824
                         10       1    1gx3y             1.846000      15.889916
                         10       1    1gx3z             1.846000      15.889916
                         10       1    1gx2y2            1.846000      20.513794
                         10       1    1gx2yz            1.846000      35.530933
                         10       1    1gx2z2            1.846000      20.513794
                         10       1    1gxy3             1.846000      15.889916
                         10       1    1gxy2z            1.846000      35.530933
                         10       1    1gxyz2            1.846000      35.530933
                         10       1    1gxz3             1.846000      15.889916
                         10       1    1gy4              1.846000       6.005824
                         10       1    1gy3z             1.846000      15.889916
                         10       1    1gy2z2            1.846000      20.513794
                         10       1    1gyz3             1.846000      15.889916
                         10       1    1gz4              1.846000       6.005824

     RI Auxiliary Basis Set                                    aug-cc-pVQZ-OPTRI

       Number of orbital shell sets:                                          19
       Number of orbital shells:                                              19
       Number of primitive Cartesian functions:                               19
       Number of Cartesian basis functions:                                  124
       Number of spherical basis functions:                                   89
       Norm type:                                                              2

       Normalised Cartesian orbitals:

                        Set   Shell   Orbital            Exponent    Coefficient

                          1       1    1px               0.097330       0.077491
                          1       1    1py               0.097330       0.077491
                          1       1    1pz               0.097330       0.077491

                          2       1    1s                0.109432       0.135603

                          3       1    1dx2              0.265583       0.161719
                          3       1    1dxy              0.265583       0.280105
                          3       1    1dxz              0.265583       0.280105
                          3       1    1dy2              0.265583       0.161719
                          3       1    1dyz              0.265583       0.280105
                          3       1    1dz2              0.265583       0.161719

                          4       1    1px               0.301747       0.318782
                          4       1    1py               0.301747       0.318782
                          4       1    1pz               0.301747       0.318782

                          5       1    1s                0.318060       0.301850

                          6       1    1fx3              0.549464       0.382664
                          6       1    1fx2y             0.549464       0.855663
                          6       1    1fx2z             0.549464       0.855663
                          6       1    1fxy2             0.549464       0.855663
                          6       1    1fxyz             0.549464       1.482052
                          6       1    1fxz2             0.549464       0.855663
                          6       1    1fy3              0.549464       0.382664
                          6       1    1fy2z             0.549464       0.855663
                          6       1    1fyz2             0.549464       0.855663
                          6       1    1fz3              0.549464       0.382664

                          7       1    1px               0.793946       1.068264
                          7       1    1py               0.793946       1.068264
                          7       1    1pz               0.793946       1.068264

                          8       1    1dx2              0.794013       1.099279
                          8       1    1dxy              0.794013       1.904006
                          8       1    1dxz              0.794013       1.904006
                          8       1    1dy2              0.794013       1.099279
                          8       1    1dyz              0.794013       1.904006
                          8       1    1dz2              0.794013       1.099279

                          9       1    1s                0.848497       0.630083

                         10       1    1gx4              1.089939       1.410235
                         10       1    1gx3y             1.089939       3.731131
                         10       1    1gx3z             1.089939       3.731131
                         10       1    1gx2y2            1.089939       4.816869
                         10       1    1gx2yz            1.089939       8.343062
                         10       1    1gx2z2            1.089939       4.816869
                         10       1    1gxy3             1.089939       3.731131
                         10       1    1gxy2z            1.089939       8.343062
                         10       1    1gxyz2            1.089939       8.343062
                         10       1    1gxz3             1.089939       3.731131
                         10       1    1gy4              1.089939       1.410235
                         10       1    1gy3z             1.089939       3.731131
                         10       1    1gy2z2            1.089939       4.816869
                         10       1    1gyz3             1.089939       3.731131
                         10       1    1gz4              1.089939       1.410235

                         11       1    1fx3              1.279062       2.561301
                         11       1    1fx2y             1.279062       5.727242
                         11       1    1fx2z             1.279062       5.727242
                         11       1    1fxy2             1.279062       5.727242
                         11       1    1fxyz             1.279062       9.919874
                         11       1    1fxz2             1.279062       5.727242
                         11       1    1fy3              1.279062       2.561301
                         11       1    1fy2z             1.279062       5.727242
                         11       1    1fyz2             1.279062       5.727242
                         11       1    1fz3              1.279062       2.561301

                         12       1    1hx5              2.104959       8.334624
                         12       1    1hx4y             2.104959      25.003871
                         12       1    1hx4z             2.104959      25.003871
                         12       1    1hx3y2            2.104959      38.194044
                         12       1    1hx3yz            2.104959      66.154025
                         12       1    1hx3z2            2.104959      38.194044
                         12       1    1hx2y3            2.104959      38.194044
                         12       1    1hx2y2z           2.104959      85.404479
                         12       1    1hx2yz2           2.104959      85.404479
                         12       1    1hx2z3            2.104959      38.194044
                         12       1    1hxy4             2.104959      25.003871
                         12       1    1hxy3z            2.104959      66.154025
                         12       1    1hxy2z2           2.104959      85.404479
                         12       1    1hxyz3            2.104959      66.154025
                         12       1    1hxz4             2.104959      25.003871
                         12       1    1hy5              2.104959       8.334624
                         12       1    1hy4z             2.104959      25.003871
                         12       1    1hy3z2            2.104959      38.194044
                         12       1    1hy2z3            2.104959      38.194044
                         12       1    1hyz4             2.104959      25.003871
                         12       1    1hz5              2.104959       8.334624

                         13       1    1dx2              2.142178       6.243192
                         13       1    1dxy              2.142178      10.813525
                         13       1    1dxz              2.142178      10.813525
                         13       1    1dy2              2.142178       6.243192
                         13       1    1dyz              2.142178      10.813525
                         13       1    1dz2              2.142178       6.243192

                         14       1    1px               2.283963       4.002224
                         14       1    1py               2.283963       4.002224
                         14       1    1pz               2.283963       4.002224

                         15       1    1s                3.180437       1.697365

                         16       1    1gx4              4.257494      59.787315
                         16       1    1gx3y             4.257494     158.182366
                         16       1    1gx3z             4.257494     158.182366
                         16       1    1gx2y2            4.257494     204.212557
                         16       1    1gx2yz            4.257494     353.706524
                         16       1    1gx2z2            4.257494     204.212557
                         16       1    1gxy3             4.257494     158.182366
                         16       1    1gxy2z            4.257494     353.706524
                         16       1    1gxyz2            4.257494     353.706524
                         16       1    1gxz3             4.257494     158.182366
                         16       1    1gy4              4.257494      59.787315
                         16       1    1gy3z             4.257494     158.182366
                         16       1    1gy2z2            4.257494     204.212557
                         16       1    1gyz3             4.257494     158.182366
                         16       1    1gz4              4.257494      59.787315

                         17       1    1fx3              6.436393      97.140469
                         17       1    1fx2y             6.436393     217.212692
                         17       1    1fx2z             6.436393     217.212692
                         17       1    1fxy2             6.436393     217.212692
                         17       1    1fxyz             6.436393     376.223419
                         17       1    1fxz2             6.436393     217.212692
                         17       1    1fy3              6.436393      97.140469
                         17       1    1fy2z             6.436393     217.212692
                         17       1    1fyz2             6.436393     217.212692
                         17       1    1fz3              6.436393      97.140469

                         18       1    1px               7.309328      17.131165
                         18       1    1py               7.309328      17.131165
                         18       1    1pz               7.309328      17.131165

                         19       1    1dx2             11.258815     113.899456
                         19       1    1dxy             11.258815     197.279646
                         19       1    1dxz             11.258815     197.279646
                         19       1    1dy2             11.258815     113.899456
                         19       1    1dyz             11.258815     197.279646
                         19       1    1dz2             11.258815     113.899456

       Atomic covalent radius [Angstrom]:                                  0.730

       Atomic van der Waals radius [Angstrom]:                             1.520

     The atoms of this atomic kind are PAW atoms (GAPW):
       Hard Gaussian function radius:                                      1.512
       Rho0 radius:                                                        1.512
       Maximum GTO radius used for PAW projector construction:            24.566

     GAPW Soft Basis Set                                        aug-cc-pVQZ_soft

       Number of orbital shell sets:                                          10
       Number of orbital shells:                                              20
       Number of primitive Cartesian functions:                               17
       Number of Cartesian basis functions:                                  105
       Number of spherical basis functions:                                   80
       Norm type:                                                              2

       Normalised Cartesian orbitals:

                        Set   Shell   Orbital            Exponent    Coefficient

                          1       1    1px               0.053480       0.036659
                          1       1    1py               0.053480       0.036659
                          1       1    1pz               0.053480       0.036659

                          2       1    1s                0.069590       0.096565

                          3       1    1dx2              0.154000       0.062312
                          3       1    1dxy              0.154000       0.107927
                          3       1    1dxz              0.154000       0.107927
                          3       1    1dy2              0.154000       0.062312
                          3       1    1dyz              0.154000       0.107927
                          3       1    1dz2              0.154000       0.062312

                          4       1    1px               1.531000       2.427499
                                                         0.530200       0.000000
                                                         0.175000       0.000000
                          4       1    1py               1.531000       2.427499
                                                         0.530200       0.000000
                                                         0.175000       0.000000
                          4       1    1pz               1.531000       2.427499
                                                         0.530200       0.000000
                                                         0.175000       0.000000

                          4       2    2px               1.531000       0.865964
                                                         0.530200       0.289113
                                                         0.175000       0.039518
                          4       2    2py               1.531000       0.865964
                                                         0.530200       0.289113
                                                         0.175000       0.039518
                          4       2    2pz               1.531000       0.865964
                                                         0.530200       0.289113
                                                         0.175000       0.039518

                          4       3    3px               1.531000       0.000000
                                                         0.530200       0.644896
                                                         0.175000       0.000000
                          4       3    3py               1.531000       0.000000
                                                         0.530200       0.644896
                                                         0.175000       0.000000
                          4       3    3pz               1.531000       0.000000
                                                         0.530200       0.644896
                                                         0.175000       0.000000

                          4       4    4px               1.531000       0.000000
                                                         0.530200       0.000000
                                                         0.175000       0.161338
                          4       4    4py               1.531000       0.000000
                                                         0.530200       0.000000
                                                         0.175000       0.161338
                          4       4    4pz               1.531000       0.000000
                                                         0.530200       0.000000
                                                         0.175000       0.161338

                          5       1    1s                1.428000       0.016380
                                                         0.554700      -0.001146
                                                         0.206700       0.000208

                          5       2    2s                1.428000       0.931014
                                                         0.554700       0.000000
                                                         0.206700       0.000000

                          5       3    3s                1.428000       0.000000
                                                         0.554700       0.458093
                                                         0.206700       0.000000

                          5       4    4s                1.428000       0.269044
                                                         0.554700       0.268501
                                                         0.206700       0.060656

                          5       5    5s                1.428000       0.000000
                                                         0.554700       0.000000
                                                         0.206700       0.218482

                          6       1    1fx3              0.324000       0.116595
                          6       1    1fx2y             0.324000       0.260715
                          6       1    1fx2z             0.324000       0.260715
                          6       1    1fxy2             0.324000       0.260715
                          6       1    1fxyz             0.324000       0.451571
                          6       1    1fxz2             0.324000       0.260715
                          6       1    1fy3              0.324000       0.116595
                          6       1    1fy2z             0.324000       0.260715
                          6       1    1fyz2             0.324000       0.260715
                          6       1    1fz3              0.324000       0.116595

                          7       1    1dx2              3.775000      16.827288
                                                         1.300000       0.000000
                                                         0.444000       0.000000
                          7       1    1dxy              3.775000      29.145718
                                                         1.300000       0.000000
                                                         0.444000       0.000000
                          7       1    1dxz              3.775000      29.145718
                                                         1.300000       0.000000
                                                         0.444000       0.000000
                          7       1    1dy2              3.775000      16.827288
                                                         1.300000       0.000000
                                                         0.444000       0.000000
                          7       1    1dyz              3.775000      29.145718
                                                         1.300000       0.000000
                                                         0.444000       0.000000
                          7       1    1dz2              3.775000      16.827288
                                                         1.300000       0.000000
                                                         0.444000       0.000000

                          7       2    2dx2              3.775000       0.000000
                                                         1.300000       2.605016
                                                         0.444000       0.000000
                          7       2    2dxy              3.775000       0.000000
                                                         1.300000       4.512019
                                                         0.444000       0.000000
                          7       2    2dxz              3.775000       0.000000
                                                         1.300000       4.512019
                                                         0.444000       0.000000
                          7       2    2dy2              3.775000       0.000000
                                                         1.300000       2.605016
                                                         0.444000       0.000000
                          7       2    2dyz              3.775000       0.000000
                                                         1.300000       4.512019
                                                         0.444000       0.000000
                          7       2    2dz2              3.775000       0.000000
                                                         1.300000       2.605016
                                                         0.444000       0.000000

                          7       3    3dx2              3.775000       0.000000
                                                         1.300000       0.000000
                                                         0.444000       0.397493
                          7       3    3dxy              3.775000       0.000000
                                                         1.300000       0.000000
                                                         0.444000       0.688478
                          7       3    3dxz              3.775000       0.000000
                                                         1.300000       0.000000
                                                         0.444000       0.688478
                          7       3    3dy2              3.775000       0.000000
                                                         1.300000       0.000000
                                                         0.444000       0.397493
                          7       3    3dyz              3.775000       0.000000
                                                         1.300000       0.000000
                                                         0.444000       0.688478
                          7       3    3dz2              3.775000       0.000000
                                                         1.300000       0.000000
                                                         0.444000       0.397493

                          8       1    1gx4              0.714000       0.440662
                          8       1    1gx3y             0.714000       1.165882
                          8       1    1gx3z             0.714000       1.165882
                          8       1    1gx2y2            0.714000       1.505147
                          8       1    1gx2yz            0.714000       2.606991
                          8       1    1gx2z2            0.714000       1.505147
                          8       1    1gxy3             0.714000       1.165882
                          8       1    1gxy2z            0.714000       2.606991
                          8       1    1gxyz2            0.714000       2.606991
                          8       1    1gxz3             0.714000       1.165882
                          8       1    1gy4              0.714000       0.440662
                          8       1    1gy3z             0.714000       1.165882
                          8       1    1gy2z2            0.714000       1.505147
                          8       1    1gyz3             0.714000       1.165882
                          8       1    1gz4              0.714000       0.440662

                          9       1    1fx3              2.666000      13.370258
                                                         0.859000       0.000000
                          9       1    1fx2y             2.666000      29.896805
                                                         0.859000       0.000000
                          9       1    1fx2z             2.666000      29.896805
                                                         0.859000       0.000000
                          9       1    1fxy2             2.666000      29.896805
                                                         0.859000       0.000000
                          9       1    1fxyz             2.666000      51.782785
                                                         0.859000       0.000000
                          9       1    1fxz2             2.666000      29.896805
                                                         0.859000       0.000000
                          9       1    1fy3              2.666000      13.370258
                                                         0.859000       0.000000
                          9       1    1fy2z             2.666000      29.896805
                                                         0.859000       0.000000
                          9       1    1fyz2             2.666000      29.896805
                                                         0.859000       0.000000
                          9       1    1fz3              2.666000      13.370258
                                                         0.859000       0.000000

                          9       2    2fx3              2.666000       0.000000
                                                         0.859000       1.045777
                          9       2    2fx2y             2.666000       0.000000
                                                         0.859000       2.338428
                          9       2    2fx2z             2.666000       0.000000
                                                         0.859000       2.338428
                          9       2    2fxy2             2.666000       0.000000
                                                         0.859000       2.338428
                          9       2    2fxyz             2.666000       0.000000
                                                         0.859000       4.050277
                          9       2    2fxz2             2.666000       0.000000
                                                         0.859000       2.338428
                          9       2    2fy3              2.666000       0.000000
                                                         0.859000       1.045777
                          9       2    2fy2z             2.666000       0.000000
                                                         0.859000       2.338428
                          9       2    2fyz2             2.666000       0.000000
                                                         0.859000       2.338428
                          9       2    2fz3              2.666000       0.000000
                                                         0.859000       1.045777

                         10       1    1gx4              1.846000       6.005824
                         10       1    1gx3y             1.846000      15.889916
                         10       1    1gx3z             1.846000      15.889916
                         10       1    1gx2y2            1.846000      20.513794
                         10       1    1gx2yz            1.846000      35.530933
                         10       1    1gx2z2            1.846000      20.513794
                         10       1    1gxy3             1.846000      15.889916
                         10       1    1gxy2z            1.846000      35.530933
                         10       1    1gxyz2            1.846000      35.530933
                         10       1    1gxz3             1.846000      15.889916
                         10       1    1gy4              1.846000       6.005824
                         10       1    1gy3z             1.846000      15.889916
                         10       1    1gy2z2            1.846000      20.513794
                         10       1    1gyz3             1.846000      15.889916
                         10       1    1gz4              1.846000       6.005824

     AE Potential information for                                            ALL

       Description:                                       All-electron potential
                                          Krack, Parrinello, PCCP 2, 2105 (2000)

       Gaussian exponent of the core charge distribution:               8.154466
       Electronic configuration (s p d ...):                           4   4   0

  2. Atomic kind: H                                     Number of atoms:       7

     Orbital Basis Set                                               aug-cc-pVQZ

       Number of orbital shell sets:                                           8
       Number of orbital shells:                                              14
       Number of primitive Cartesian functions:                               16
       Number of Cartesian basis functions:                                   55
       Number of spherical basis functions:                                   46
       Norm type:                                                              2

       Normalised Cartesian orbitals:

                        Set   Shell   Orbital            Exponent    Coefficient

                          1       1    1s                0.023630       0.042954

                          2       1    1px               0.084800       0.065228
                          2       1    1py               0.084800       0.065228
                          2       1    1pz               0.084800       0.065228

                          3       1    1s               82.640000       0.000000
                                                        12.410000       0.000000
                                                         2.824000       0.000000
                                                         0.797700       0.601575
                                                         0.258100       0.000000
                                                         0.089890       0.000000

                          3       2    2s               82.640000       0.000000
                                                        12.410000       0.000000
                                                         2.824000       0.000000
                                                         0.797700       0.000000
                                                         0.258100       0.258078
                                                         0.089890       0.000000

                          3       3    3s               82.640000       0.039186
                                                        12.410000       0.072302
                                                         2.824000       0.117344
                                                         0.797700       0.154530
                                                         0.258100       0.128360
                                                         0.089890       0.034648

                          3       4    4s               82.640000       0.000000
                                                        12.410000       0.000000
                                                         2.824000       0.000000
                                                         0.797700       0.000000
                                                         0.258100       0.000000
                                                         0.089890       0.117002

                          4       1    1dx2              0.190000       0.089997
                          4       1    1dxy              0.190000       0.155879
                          4       1    1dxz              0.190000       0.155879
                          4       1    1dy2              0.190000       0.089997
                          4       1    1dyz              0.190000       0.155879
                          4       1    1dz2              0.190000       0.089997

                          5       1    1px               2.292000       4.019836
                                                         0.838000       0.000000
                                                         0.292000       0.000000
                          5       1    1py               2.292000       4.019836
                                                         0.838000       0.000000
                                                         0.292000       0.000000
                          5       1    1pz               2.292000       4.019836
                                                         0.838000       0.000000
                                                         0.292000       0.000000

                          5       2    2px               2.292000       0.000000
                                                         0.838000       1.142865
                                                         0.292000       0.000000
                          5       2    2py               2.292000       0.000000
                                                         0.838000       1.142865
                                                         0.292000       0.000000
                          5       2    2pz               2.292000       0.000000
                                                         0.838000       1.142865
                                                         0.292000       0.000000

                          5       3    3px               2.292000       0.000000
                                                         0.838000       0.000000
                                                         0.292000       0.305963
                          5       3    3py               2.292000       0.000000
                                                         0.838000       0.000000
                                                         0.292000       0.305963
                          5       3    3pz               2.292000       0.000000
                                                         0.838000       0.000000
                                                         0.292000       0.305963

                          6       1    1fx3              0.360000       0.147787
                          6       1    1fx2y             0.360000       0.330461
                          6       1    1fx2z             0.360000       0.330461
                          6       1    1fxy2             0.360000       0.330461
                          6       1    1fxyz             0.360000       0.572375
                          6       1    1fxz2             0.360000       0.330461
                          6       1    1fy3              0.360000       0.147787
                          6       1    1fy2z             0.360000       0.330461
                          6       1    1fyz2             0.360000       0.330461
                          6       1    1fz3              0.360000       0.147787

                          7       1    1dx2              2.062000       5.840024
                                                         0.662000       0.000000
                          7       1    1dxy              2.062000      10.115218
                                                         0.662000       0.000000
                          7       1    1dxz              2.062000      10.115218
                                                         0.662000       0.000000
                          7       1    1dy2              2.062000       5.840024
                                                         0.662000       0.000000
                          7       1    1dyz              2.062000      10.115218
                                                         0.662000       0.000000
                          7       1    1dz2              2.062000       5.840024
                                                         0.662000       0.000000

                          7       2    2dx2              2.062000       0.000000
                                                         0.662000       0.799670
                          7       2    2dxy              2.062000       0.000000
                                                         0.662000       1.385069
                          7       2    2dxz              2.062000       0.000000
                                                         0.662000       1.385069
                          7       2    2dy2              2.062000       0.000000
                                                         0.662000       0.799670
                          7       2    2dyz              2.062000       0.000000
                                                         0.662000       1.385069
                          7       2    2dz2              2.062000       0.000000
                                                         0.662000       0.799670

                          8       1    1fx3              1.397000       3.123535
                          8       1    1fx2y             1.397000       6.984436
                          8       1    1fx2z             1.397000       6.984436
                          8       1    1fxy2             1.397000       6.984436
                          8       1    1fxyz             1.397000      12.097399
                          8       1    1fxz2             1.397000       6.984436
                          8       1    1fy3              1.397000       3.123535
                          8       1    1fy2z             1.397000       6.984436
                          8       1    1fyz2             1.397000       6.984436
                          8       1    1fz3              1.397000       3.123535

     RI Auxiliary Basis Set                                    aug-cc-pVQZ-OPTRI

       Number of orbital shell sets:                                          15
       Number of orbital shells:                                              15
       Number of primitive Cartesian functions:                               15
       Number of Cartesian basis functions:                                   84
       Number of spherical basis functions:                                   63
       Norm type:                                                              2

       Normalised Cartesian orbitals:

                        Set   Shell   Orbital            Exponent    Coefficient

                          1       1    1s                0.172202       0.190519

                          2       1    1dx2              0.411937       0.348629
                          2       1    1dxy              0.411937       0.603843
                          2       1    1dxz              0.411937       0.603843
                          2       1    1dy2              0.411937       0.348629
                          2       1    1dyz              0.411937       0.603843
                          2       1    1dz2              0.411937       0.348629

                          3       1    1s                0.462666       0.399817

                          4       1    1px               0.544212       0.666270
                          4       1    1py               0.544212       0.666270
                          4       1    1pz               0.544212       0.666270

                          5       1    1fx3              0.798039       0.886153
                          5       1    1fx2y             0.798039       1.981498
                          5       1    1fx2z             0.798039       1.981498
                          5       1    1fxy2             0.798039       1.981498
                          5       1    1fxyz             0.798039       3.432056
                          5       1    1fxz2             0.798039       1.981498
                          5       1    1fy3              0.798039       0.886153
                          5       1    1fy2z             0.798039       1.981498
                          5       1    1fyz2             0.798039       1.981498
                          5       1    1fz3              0.798039       0.886153

                          6       1    1gx4              1.030651       1.209184
                          6       1    1gx3y             1.030651       3.199200
                          6       1    1gx3z             1.030651       3.199200
                          6       1    1gx2y2            1.030651       4.130150
                          6       1    1gx2yz            1.030651       7.153629
                          6       1    1gx2z2            1.030651       4.130150
                          6       1    1gxy3             1.030651       3.199200
                          6       1    1gxy2z            1.030651       7.153629
                          6       1    1gxyz2            1.030651       7.153629
                          6       1    1gxz3             1.030651       3.199200
                          6       1    1gy4              1.030651       1.209184
                          6       1    1gy3z             1.030651       3.199200
                          6       1    1gy2z2            1.030651       4.130150
                          6       1    1gyz3             1.030651       3.199200
                          6       1    1gz4              1.030651       1.209184

                          7       1    1dx2              1.146690       2.091414
                          7       1    1dxy              1.146690       3.622435
                          7       1    1dxz              1.146690       3.622435
                          7       1    1dy2              1.146690       2.091414
                          7       1    1dyz              1.146690       3.622435
                          7       1    1dz2              1.146690       2.091414

[...]
 https://doi.org/10.1039/b001167n

 G. Lippert, J. Hutter, M. Parrinello.
 Theor. Chem. Acc. 103, 124-140 (1999).
 The Gaussian and augmented-plane-wave density functional method for ab initio 
 molecular dynamics simulations.
 https://doi.org/10.1007/s002140050523

 J. P. Perdew, K. Burke, M. Ernzerhof.
 Phys. Rev. Lett. 77, 3865-3868 (1996).
 Generalized gradient approximation made simple.
 https://doi.org/10.1103/PhysRevLett.77.3865


 -------------------------------------------------------------------------------
 -                                                                             -
 -                                T I M I N G                                  -
 -                                                                             -
 -------------------------------------------------------------------------------
 SUBROUTINE                       CALLS  ASD         SELF TIME        TOTAL TIME
                                MAXIMUM       AVERAGE  MAXIMUM  AVERAGE  MAXIMUM
 CP2K                                 1  1.0    0.132    0.189  994.340  994.340
 qs_energies                          1  2.0    0.000    0.001  992.201  992.201
 qs_energies_properties               1  3.0    0.000    0.000  688.214  688.214
 tddfpt                               1  4.0    0.000    0.000  688.213  688.214
 tddfpt_energies                      1  5.0    0.000    0.001  687.969  687.969
 tddfpt_davidson_solver               1  6.0    0.003    0.006  682.581  682.581
 tddfpt_compute_Aop_evects           11  7.0    0.000    0.000  678.676  678.678
 integrate_four_center              525  9.8   13.699   26.009  509.792  510.016
 integrate_four_center_main         525 10.8    6.088   13.823  418.980  433.034
 integrate_four_center_bin        93201 11.9  412.892  426.061  412.892  426.061
 tddfpt_apply_hfx                    11  8.0    0.005    0.006  357.064  357.064
 tddft_hfx_matrix                   440  9.0    0.014    0.016  352.352  352.536
 fhxc_kernel                         11  8.0    0.009    0.011  320.017  320.019
 scf_env_do_scf                       1  3.0    0.000    0.000  298.057  298.067
 scf_env_do_scf_inner_loop           85  4.0    0.003    0.006  298.057  298.067
 qs_ks_update_qs_env                 85  5.0    0.001    0.001  250.382  250.505
 rebuild_ks_matrix                   85  6.0    0.000    0.000  250.370  250.493
 qs_ks_build_kohn_sham_matrix        85  7.0    0.013    0.014  250.369  250.493
 hfx_ks_matrix                       85  8.0    0.004    0.004  157.470  157.518
 pw_poisson_solve                   305  9.4    3.311    4.305  139.617  140.968
 tddfpt_apply_coulomb               220  9.0    0.004    0.005  134.979  136.379
 fft_wrap_pw1pw2                   6199 11.1    0.102    0.133  110.773  112.620
 fft_wrap_pw1pw2_250               4363 12.1    3.921    4.473  106.830  108.744
 fft3d_ps                          6199 13.1   21.534   25.150   99.458  101.496
 ps_wavelet_solve                   305 10.4   49.577   60.692   82.703   83.992
 qs_rho_update_rho_low              307  7.9    0.004    0.005   82.891   82.911
 mp_alltoall_z22v                  6199 15.1   74.585   77.444   74.585   77.444
 calculate_rho_elec                 307  8.9    1.124    1.420   75.443   75.463
 integrate_v_rspace                 305  9.0    0.008    0.010   72.408   72.725
 density_rs2pw                      307  9.9    0.015    0.018   49.526   57.396
 mp_alltoall_d11v                 19312 11.6   46.104   56.583   46.104   56.583
 mp_alltoall_d54                    305 11.4   15.398   55.843   15.398   55.843
 prepare_gapw_den                   306  8.7    0.008    0.011   54.116   54.158
 x_to_yz                           2834 13.8    1.584    2.094   51.850   53.959
 transfer_rs2pw                    1535 10.8    0.030    0.053   41.942   49.872
 mp_waitany                       71030 12.8   33.315   42.657   33.315   42.657
 grid_collocate_task_list           307  9.9   23.174   42.586   23.174   42.586
 rs_gather_matrices                 305 10.0    0.050    0.100   37.028   42.163
 grid_integrate_task_list           305 10.0    5.102   41.168    5.102   41.168
 mp_sync                           2771 11.5   28.759   38.758   28.759   38.758
 transfer_rs2pw_250                 614 11.8    2.836    3.255   26.431   34.380
 calculate_rho_atom                1224  9.7   10.025   34.369   10.025   34.369
 gaVxcgb_GC                         915  9.7    1.395   34.230    1.395   34.230
 xc_pw_derive                      1833 11.0    0.013    0.015   32.098   32.368
 potential_pw2rs                    305 10.0    0.096    0.107   30.269   30.628
 calculate_xc_2nd_deriv_atom        220  9.0    0.252    5.276    1.305   30.534
 transfer_pw2rs                    1526 10.9    0.021    0.026   27.091   28.279
 calc_screening_functions             1 10.0   21.006   22.039   26.925   28.244
 tddfpt_apply_xc_analytic           220  9.0    0.083    0.097   27.858   28.068
 mp_sum_dv                        55270  8.8   26.641   28.023   26.641   28.023
 yz_to_x                           2753 14.4    1.195    1.303   25.461   26.581
 mp_alltoall_d45                    306 11.4   17.281   21.990   17.281   21.990
 mp_waitall_1                    430826 13.3   17.552   21.709   17.552   21.709
 xc_pw_divergence                   305 10.7    0.006    0.007   20.999   21.239
 integrate_vhg0_rspace              305  9.4    3.682    3.965   20.986   21.206
 sum_up_and_integrate                85  8.0    0.001    0.001   19.434   19.479
 mp_sum_d                         17997  7.3   17.574   18.687   17.574   18.687
 mp_sum_dm                        15749 10.0   17.351   17.929   17.351   17.929
 cp_fm_syevd                        139  7.2    0.001    0.002   16.438   16.477
 cp_fm_redistribute_end             139  8.2    8.183   16.254    8.202   16.261
 cp_fm_syevd_base                   139  8.2    8.025   16.088    8.025   16.088
 xc_calc_2nd_deriv_analytical      1540 10.2    0.647    0.810   15.873   16.017
 qs_scf_new_mos                      85  5.0    0.001    0.001   14.950   15.018
 eigensolver_symm                    85  6.0    0.004    0.005   13.899   13.912
 transfer_pw2rs_250                 611 11.7    3.578    3.927   11.832   13.004
 qs_vxc_create                       85  8.0    0.001    0.001   12.209   12.210
 xc_vxc_pw_create                    85  9.0    0.336    0.428   12.208   12.209
 put_rho0_on_grid                   306  9.7    1.175    1.619   12.045   12.087
 transfer_pw2rs_30                  305 12.0    5.997    7.273   10.647   10.903
 calculate_vxc_atom                  85  8.0    0.092    1.056   10.622   10.623
 cp_dbcsr_sm_fm_multiply           1366  8.6    0.031    0.037    9.907   10.239
 powell_optimize                3931950 11.0    9.752   10.230    9.752   10.230
 transfer_rs2pw_90                  307 11.9    0.537    0.621    4.484   10.106
 gspace_mixing                       84  5.0    0.306    0.388    9.789    9.790
 transfer_rs2pw_30                  307 11.9    3.339    3.596    9.385    9.505
 mp_isendrecv_dv                 210820 12.3    2.957    8.785    2.957    8.785
 integrate_four_center_getP         525 10.8    0.966    1.347    8.354    8.615
 broyden_mixing                      84  6.0    7.461    7.894    7.806    8.027
 calculate_rho0_atom               1224  9.7    6.730    7.674    6.730    7.674
 mp_sendrecv_dv                   77978 12.9    7.088    7.551    7.088    7.551
 calculate_rho_atom_coeff           307  8.9    0.527    0.808    7.444    7.445
 integrate_four_center_dist_KS      525 10.8    0.569    0.601    7.371    7.384
 dbcsr_complete_redistribute       4554 10.5    0.252    0.400    6.152    6.467
 xc_rho_set_and_dset_create          86 10.0    0.226    0.264    5.701    6.172
 calc_pair_dist_radii                 1 10.0    1.622    1.659    5.456    5.620
 mp_isend_dm3                     12246 12.8    1.772    5.419    1.772    5.419
 qs_energies_init_hamiltonians        1  3.0    0.000    0.000    5.317    5.317
 build_core_hamiltonian_matrix        1  4.0    0.000    0.000    5.307    5.308
 overlap_condnum                      1  5.0    0.000    0.000    5.288    5.298
 dbcsr_multiply_generic            1891 10.3    0.090    0.102    4.788    5.085
 arnoldi_conjugate_gradient           5  6.0    0.069    0.085    5.037    5.037
 tddfpt_print_nto_analysis            1  6.0    0.002    0.003    4.647    4.648
 copy_fm_to_dbcsr                  3077  9.6    0.016    0.018    4.313    4.622
 cp2k_distribution_to_z_slices      305 10.4    2.218    2.464    3.997    4.243
 copy_dbcsr_to_fm                  1475  9.3    0.022    0.024    3.939    4.237
 cp_fm_geeig                         20  7.0    0.001    0.001    4.120    4.122
 pw_scatter_p                      3139 12.8    3.687    4.107    3.687    4.107
 Vh_1c_gg_integrals                 305  9.4    0.195    3.587    3.763    3.858
 cp_dbcsr_sm_fm_multiply_core      1366  9.6    0.004    0.005    3.507    3.805
 transfer_pw2rs_90                  305 12.0    0.502    0.561    2.960    3.368
 multiply_cannon                   1891 11.3    0.193    0.200    2.758    3.062
 dbcsr_sym_matrix_vector_mult     10015  7.0    0.164    0.173    2.768    2.849
 fft_wrap_pw1pw2_90                 612 11.9    0.119    0.142    2.646    2.755
 mp_irecv_dm3                     12246 12.8    0.647    2.710    0.647    2.710
 multiply_cannon_loop              1891 12.3    0.304    0.339    2.267    2.556
 mp_sum_l                          7155 10.7    1.752    2.453    1.752    2.453
 dbcsr_add_d                      15090  7.0    0.014    0.017    0.350    2.389
 dbcsr_add_anytype                15090  8.0    0.025    0.211    0.336    2.373
 integrate_four_center_load         525 10.8    0.002    0.003    1.561    2.264
 hfx_load_balance                     1 11.0    0.000    0.000    1.559    2.262
 mp_alltoall_i11v                 15138 11.5    2.247    2.256    2.247    2.256
 rs_grid_zero                      1528 11.9    1.818    2.236    1.818    2.236
 tddfpt_orthonormalize_psi1_psi      12  6.9    0.035    0.038    2.208    2.210
 hfx_load_balance_range               1 12.0    0.000    0.001    1.483    2.186
 mp_alltoall_i22                   6030 11.5    1.556    2.139    1.556    2.139
 dbcsr_desymmetrize_deep           1476 10.3    0.033    0.048    1.831    2.121
 cp_dbcsr_plus_fm_fm_t              305  8.4    0.005    0.006    2.059    2.104
 pw_gather_p                       3060 13.4    1.938    2.101    1.938    2.101
 update_ks_atom                     305  8.7    0.416    0.903    1.555    1.979
 pw_integral_ab_c1d_c1d_gs          305 10.4    1.614    1.629    1.887    1.928
 transfer_pw2rs_10                  305 12.0    0.592    0.656    1.632    1.880
 dbcsr_finalize                   23822 11.2    0.096    0.525    0.575    1.845
 transfer_rs2pw_10                  307 11.9    0.571    0.614    1.613    1.667
 pw_copy_to_array                  3060 13.4    0.919    1.649    0.919    1.649
 parallel_gemm_fm                  1986  8.3    0.003    0.003    1.567    1.612
 parallel_gemm_fm_gemm             1986  9.3    0.003    0.003    1.564    1.609
 cp_fm_gemm                        1986 10.3    1.561    1.606    1.561    1.606
 tddfpt_apply_energy_diff            11  8.0    0.001    0.002    1.595    1.595
 pw_derive                         2748 11.8    1.442    1.560    1.442    1.560
 multiply_cannon_metrocomm3       30256 13.3    0.092    0.096    1.007    1.543
 xc_functional_eval                1916 10.9    0.001    0.007    0.929    1.536
 pbe_lda_eval                      1916 11.9    0.927    1.529    0.927    1.529
 create_qs_kind_set                   1  2.0    0.000    0.000    1.519    1.521
 read_qs_kind                         4  3.0    0.851    0.865    1.519    1.521
 tddfpt_compute_residual_vects       10  7.0    0.001    0.002    1.438    1.439
 make_m2s                          3782 11.3    0.055    0.070    1.335    1.412
 mp_isend_dv                     120662 13.6    0.981    1.361    0.981    1.361
 pw_copy                           4140 11.0    1.142    1.229    1.142    1.229
 dbcsr_col_vec_to_rep_row         10015  8.0    0.077    0.088    1.089    1.228
 make_images                       3782 12.3    0.300    0.347    1.148    1.198
 mp_bcast_dm                      10370  9.7    1.140    1.183    1.140    1.183
 rs_scatter_matrices                307  9.9    0.008    0.013    0.968    1.008
 mp_bcast_dv                      10154  9.0    0.765    0.964    0.765    0.964
 dbcsr_merge_all                  21791 12.2    0.240    0.705    0.334    0.950
 multiply_cannon_metrocomm4       28365 13.3    0.087    0.092    0.361    0.943
 hybrid_alltoall_any               5258 13.5    0.050    0.074    0.874    0.941
 pw_poisson_set                     306 10.4    0.006    0.006    0.856    0.885
 mp_irecv_dv                     119298 13.6    0.292    0.875    0.292    0.875
 fft_wrap_pw1pw2_30                 612 11.9    0.024    0.026    0.735    0.867
 dbcsr_iterator_start            147946  9.5    0.397    0.657    0.442    0.789
 pw_poisson_rebuild                 305 10.4    0.000    0.000    0.695    0.712
 ps_wavelet_create                    1 10.0    0.000    0.000    0.695    0.711
 RS_z_slice_distribution              1 11.0    0.583    0.682    0.695    0.711
 pw_copy_from_array                3139 12.8    0.597    0.710    0.597    0.710
 calculate_dm_sparse                 85  6.0    0.001    0.001    0.662    0.698
 cp_fm_trace_a1b1t1_aa            24520  8.0    0.163    0.187    0.687    0.697
 multiply_cannon_multrec          30256 13.3    0.288    0.682    0.298    0.692
 parser_read_line                181630  4.0    0.061    0.066    0.668    0.678
 scale_and_distribute               610 11.4    0.558    0.637    0.558    0.637
 parser_read_line_low               200  5.0    0.059    0.266    0.607    0.618
 pw_axpy                           3278 10.8    0.564    0.616    0.564    0.616
 pw_zero                           3376 10.6    0.524    0.599    0.524    0.599
 broadcast_input_information        200  6.0    0.140    0.153    0.548    0.581
 mp_max_i                           784  5.5    0.492    0.578    0.492    0.578
 cp_fm_triangular_multiply           60  8.0    0.574    0.576    0.574    0.576
 init_scf_run                         1  3.0    0.000    0.000    0.550    0.550
 dbcsr_rep_row_to_rep_col_vec     10015  8.0    0.063    0.073    0.400    0.528
 cp_fm_symm                          85  7.0    0.516    0.526    0.516    0.526
 multiply_cannon_metrocomm1       30256 13.3    0.048    0.050    0.131    0.504
 fft_wrap_pw1pw2_10                 612 11.9    0.008    0.008    0.461    0.467
 tddfpt_construct_ground_state_       1  6.0    0.000    0.000    0.457    0.458
 xc_2nd_deriv_of_r                 1320 10.0    0.005    0.121    0.018    0.442
 offload_free_buffer                313 10.3    0.281    0.433    0.281    0.433
 dbcsr_copy                       44650  7.9    0.258    0.288    0.379    0.418
 make_images_sizes                 3782 13.3    0.005    0.005    0.376    0.418
 mp_alltoall_i44                   3782 14.3    0.371    0.413    0.371    0.413
 dbcsr_sym_matrix_vector_mult_l   10015  8.0    0.173    0.293    0.287    0.406
 dbcsr_work_create                28940 12.1    0.103    0.252    0.164    0.400
 dbcsr_iterator_stop             147946  9.5    0.233    0.352    0.263    0.388
 cp_fm_redistribute_start           139  8.2    0.158    0.313    0.210    0.378
 scf_env_initial_rho_setup            1  4.0    0.000    0.000    0.376    0.376
 qs_init_subsys                       1  2.0    0.007    0.007    0.350    0.351
 make_images_data                  3782 13.3    0.048    0.060    0.257    0.333
 dbcsr_work_destroy_all           28940 13.0    0.092    0.228    0.139    0.332
 mp_cart_sub                       2953 11.3    0.326    0.328    0.326    0.328
 dbcsr_create_new                 70284 10.0    0.240    0.264    0.303    0.327
 cp_fm_cholesky_decompose            21  8.0    0.309    0.310    0.309    0.310
 cp_fm_triangular_invert             20  8.0    0.304    0.305    0.304    0.305
 mp_alltoall_z11v                   612 14.9    0.294    0.301    0.294    0.301
 qs_env_setup                         1  3.0    0.000    0.000    0.292    0.301
 qs_env_rebuild_pw_env                2  3.5    0.000    0.000    0.290    0.299
 pw_env_rebuild                       1  5.0    0.001    0.001    0.290    0.299
 multiply_cannon_metrocomm2       26474 13.3    0.081    0.088    0.167    0.295
 mp_bcast_i_src                     800  7.0    0.190    0.281    0.190    0.281
 mp_cart_create                    2700 10.6    0.235    0.265    0.238    0.269
 dbcsr_data_new                  373471 12.1    0.151    0.252    0.151    0.252
 mp_bcast_am_src                    200  7.0    0.191    0.240    0.210    0.250
 mp_allgather_i34                  1891 12.3    0.163    0.239    0.163    0.239
 dbcsr_scale_anytype              15092  9.0    0.038    0.055    0.190    0.236
 prepare_dr1dr                     1540 11.2    0.174    0.232    0.174    0.232
 mp_rank_compare                   6199 14.1    0.209    0.218    0.209    0.218
 dbcsr_data_release              543427 11.7    0.126    0.198    0.126    0.198
 copy_fm_to_dbcsr_bc               3077 10.6    0.055    0.065    0.170    0.196
 tddfpt_compute_ritz_vects           11  7.0    0.006    0.007    0.194    0.195
 cp_fm_power                          1  6.0    0.002    0.003    0.191    0.192
 pw_grid_setup                        4  6.0    0.000    0.000    0.183    0.192
 pw_grid_setup_internal               4  7.0    0.004    0.005    0.183    0.192
 create_fast_col_vec_access       20030  8.0    0.124    0.134    0.168    0.178
 tddfpt_init_mos                      1  5.0    0.000    0.000    0.178    0.178
 tddfpt_init_ground_state_mos         1  6.0    0.000    0.000    0.178    0.178
 create_fast_row_vec_access       20030  8.0    0.121    0.131    0.167    0.177
 yz_to_xz                           305 14.0    0.009    0.011    0.164    0.169
 eigensolver                          1  7.0    0.000    0.000    0.165    0.165
 dbcsr_iterator_seek             147946 10.5    0.045    0.160    0.045    0.160
 xz_to_yz                           307 13.9    0.007    0.008    0.146    0.149
 tddfpt_orthogonalize_psi1_psi0      12  6.9    0.000    0.000    0.127    0.135
 merge_index                      21791 13.2    0.023    0.126    0.023    0.126
 dbcsr_special_finalize            5673 13.3    0.027    0.029    0.084    0.116
 pw_grid_sort                         4  8.0    0.076    0.078    0.112    0.115
 dbcsr_destroy                    50173  9.9    0.064    0.067    0.098    0.105
 dbcsr_make_images_dense           1050 11.7    0.012    0.017    0.043    0.104
 create_kernel_env                    1  6.0    0.000    0.000    0.088    0.101
 xc_prep_2nd_deriv                    1  7.0    0.000    0.000    0.088    0.101
 pw_scale                           780  9.5    0.078    0.100    0.078    0.100
 compute_max_radius                   1  6.0    0.097    0.100    0.097    0.100
 -------------------------------------------------------------------------------

 The number of warnings for this run is : 2
 
 -------------------------------------------------------------------------------
  **** **** ******  **  PROGRAM ENDED AT                 2025-04-14 07:50:54.372
 ***** ** ***  *** **   PROGRAM RAN ON                              i01r07c01s04
 **    ****   ******    PROGRAM RAN BY                                   di38fab
 ***** **    ** ** **   PROGRAM PROCESS ID                               1520229
  **** **  *******  **  PROGRAM STOPPED IN /hppfs/scratch/04/di38fab/05_MOL/aUKB
                                           qsEOTmq69kFe5R_nOg/5k_set_final_qzvp/
                                           RIWJOW/aug-cc-pVQZ/TDDFT
