 DBCSR| CPU Multiplication driver                                           BLAS (U)
 DBCSR| Multrec recursion limit                                              512 (U)
 DBCSR| Multiplication stack size                                           1000 (D)
 DBCSR| Maximum elements for images                                    UNLIMITED (U)
 DBCSR| Multiplicative factor virtual images                                   1 (U)
 DBCSR| Use multiplication densification                                       T (D)
 DBCSR| Multiplication size stacks                                             3 (U)
 DBCSR| Use memory pool for CPU allocation                                     F (U)
 DBCSR| Number of 3D layers                                               SINGLE (U)
 DBCSR| Use MPI memory allocation                                              F (U)
 DBCSR| Use RMA algorithm                                                      F (U)
 DBCSR| Use Communication thread                                               T (U)
 DBCSR| Communication thread load                                             75 (D)
 DBCSR| MPI: My process id                                                     0
 DBCSR| MPI: Number of processes                                             216
 DBCSR| OMP: Current number of threads                                         4
 DBCSR| OMP: Max number of threads                                             4
 DBCSR| Split modifier for TAS multiplication algorithm                  1.0E+00 (U)


  **** **** ******  **  PROGRAM STARTED AT               2025-04-02 21:57:32.241
 ***** ** ***  *** **   PROGRAM STARTED ON                          i03r11c02s12
 **    ****   ******    PROGRAM STARTED BY                               di38fab
 ***** **    ** ** **   PROGRAM PROCESS ID                               2279524
  **** **  *******  **  PROGRAM STARTED IN /hppfs/scratch/04/di38fab/07_MOL_non_
                                           aug/05_MOL_non_aug/05_MOL/aUKBqsEOTmq
                                           69kFe5R_nOg/5k_set_final_qzvp/WADQOJ/
                                           QZVPP/TDDFT

 CP2K| version string:                 CP2K version 2025.1 (Development Version)
 CP2K| source code revision number:                                  git:d2e611a
 CP2K| cp2kflags: omp libint fftw3 libxc parallel scalapack max_contr=4         
 CP2K| is freely available from                            https://www.cp2k.org/
 CP2K| Program compiled at                       Thu 06 Mar 2025 05:09:20 PM CET
 CP2K| Program compiled on                                               login02
 CP2K| Program compiled for                                        Supermuc-foss
 CP2K| Data directory path                  /hppfs/work/pn36zo/di38fab/cp2k/data
 CP2K| Input file name                                                    GW.inp

 GLOBAL| Force Environment number                                              1
 GLOBAL| Basis set file name            /hppfs/scratch/04/di38fab/04_TMD/BASIS_A
 GLOBAL| Potential file name            /hppfs/work/pn36zo/di38fab/cp2k/data/ALL
 GLOBAL| MM Potential file name                                     MM_POTENTIAL
 GLOBAL| Coordinate file name                                      __STD_INPUT__
 GLOBAL| Method name                                                        CP2K
 GLOBAL| Project name                                                       MoS2
 GLOBAL| Run type                                                         ENERGY
 GLOBAL| FFT library                                                       FFTW3
 GLOBAL| Diagonalization library                                       ScaLAPACK
 GLOBAL| DGEMM library                                                      BLAS
 GLOBAL| Orthonormality check for eigenvectors                          DISABLED
 GLOBAL| Matrix multiplication library                                 ScaLAPACK
 GLOBAL| All-to-all communication in single precision                          F
 GLOBAL| FFTs using library dependent lengths                                  F
 GLOBAL| Grid backend                                                       AUTO
 GLOBAL| Global print level                                               MEDIUM
 GLOBAL| MPI I/O enabled                                                       T
 GLOBAL| Total number of message passing processes                           216
 GLOBAL| Number of threads for this process                                    4
 GLOBAL| This output is from process                                           0
 GLOBAL| OpenMP stack size per thread (OMP_STACKSIZE)                    default
 GLOBAL| CPU model name             Intel(R) Xeon(R) Platinum 8174 CPU @ 3.10GHz

 MEMORY| system memory details [Kb]
 MEMORY|                        rank 0           min           max       average
 MEMORY| MemTotal             98436664      98436648      98436664      98436661
 MEMORY| MemFree              85705340      85587680      85780140      85681738
 MEMORY| Buffers                     0             0             0             0
 MEMORY| Cached                2343856       2326580       2352656       2344509
 MEMORY| Slab                   934424        907524        960180        936608
 MEMORY| SReclaimable           206896        193272        219856        207196
 MEMORY| MemLikelyFree        88256092      88142784      88304708      88233444


 *** Fundamental physical constants (SI units) ***

 *** Literature: B. J. Mohr and B. N. Taylor,
 ***             CODATA recommended values of the fundamental physical
 ***             constants: 2006, Web Version 5.1
 ***             http://physics.nist.gov/constants

 Speed of light in vacuum [m/s]                             2.99792458000000E+08
 Magnetic constant or permeability of vacuum [N/A**2]       1.25663706143592E-06
 Electric constant or permittivity of vacuum [F/m]          8.85418781762039E-12
 Planck constant (h) [J*s]                                  6.62606896000000E-34
 Planck constant (h-bar) [J*s]                              1.05457162825177E-34
 Elementary charge [C]                                      1.60217648700000E-19
 Electron mass [kg]                                         9.10938215000000E-31
 Electron g factor [ ]                                     -2.00231930436220E+00
 Proton mass [kg]                                           1.67262163700000E-27
 Fine-structure constant                                    7.29735253760000E-03
 Rydberg constant [1/m]                                     1.09737315685270E+07
 Avogadro constant [1/mol]                                  6.02214179000000E+23
 Boltzmann constant [J/K]                                   1.38065040000000E-23
 Atomic mass unit [kg]                                      1.66053878200000E-27
 Bohr radius [m]                                            5.29177208590000E-11

 *** Conversion factors ***

 [u] -> [a.u.]                                              1.82288848426455E+03
 [Angstrom] -> [Bohr] = [a.u.]                              1.88972613288564E+00
 [a.u.] = [Bohr] -> [Angstrom]                              5.29177208590000E-01
 [a.u.] -> [s]                                              2.41888432650478E-17
 [a.u.] -> [fs]                                             2.41888432650478E-02
 [a.u.] -> [J]                                              4.35974393937059E-18
 [a.u.] -> [N]                                              8.23872205491840E-08
 [a.u.] -> [K]                                              3.15774647902944E+05
 [a.u.] -> [kJ/mol]                                         2.62549961709828E+03
 [a.u.] -> [kcal/mol]                                       6.27509468713739E+02
 [a.u.] -> [Pa]                                             2.94210107994716E+13
 [a.u.] -> [bar]                                            2.94210107994716E+08
 [a.u.] -> [atm]                                            2.90362800883016E+08
 [a.u.] -> [eV]                                             2.72113838565563E+01
 [a.u.] -> [Hz]                                             6.57968392072181E+15
 [a.u.] -> [1/cm] (wave numbers)                            2.19474631370540E+05
 [a.u./Bohr**2] -> [1/cm]                                   5.14048714338585E+03
 

 CELL_TOP| Volume [angstrom^3]:                                     27000.000000
 CELL_TOP| Vector a [angstrom    30.000     0.000     0.000   |a| =    30.000000
 CELL_TOP| Vector b [angstrom     0.000    30.000     0.000   |b| =    30.000000
 CELL_TOP| Vector c [angstrom     0.000     0.000    30.000   |c| =    30.000000
 CELL_TOP| Angle (b,c), alpha [degree]:                                90.000000
 CELL_TOP| Angle (a,c), beta  [degree]:                                90.000000
 CELL_TOP| Angle (a,b), gamma [degree]:                                90.000000
 CELL_TOP| Numerically orthorhombic:                                         YES
 CELL_TOP| Periodicity                                                      NONE

 GENERATE|  Preliminary Number of Bonds generated:                             0
 GENERATE|  Achieved consistency in connectivity generation.

 CELL| Volume [angstrom^3]:                                         27000.000000
 CELL| Vector a [angstrom]:      30.000     0.000     0.000   |a| =    30.000000
 CELL| Vector b [angstrom]:       0.000    30.000     0.000   |b| =    30.000000
 CELL| Vector c [angstrom]:       0.000     0.000    30.000   |c| =    30.000000
 CELL| Angle (b,c), alpha [degree]:                                    90.000000
 CELL| Angle (a,c), beta  [degree]:                                    90.000000
 CELL| Angle (a,b), gamma [degree]:                                    90.000000
 CELL| Numerically orthorhombic:                                             YES
 CELL| Periodicity                                                          NONE

 CELL_REF| Volume [angstrom^3]:                                     27000.000000
 CELL_REF| Vector a [angstrom    30.000     0.000     0.000   |a| =    30.000000
 CELL_REF| Vector b [angstrom     0.000    30.000     0.000   |b| =    30.000000
 CELL_REF| Vector c [angstrom     0.000     0.000    30.000   |c| =    30.000000
 CELL_REF| Angle (b,c), alpha [degree]:                                90.000000
 CELL_REF| Angle (a,c), beta  [degree]:                                90.000000
 CELL_REF| Angle (a,b), gamma [degree]:                                90.000000
 CELL_REF| Numerically orthorhombic:                                         YES
 CELL_REF| Periodicity                                                      NONE

 *******************************************************************************
 *******************************************************************************
 **                                                                           **
 **     #####                         ##              ##                      **
 **    ##   ##            ##          ##              ##                      **
 **   ##     ##                       ##            ######                    **
 **   ##     ##  ##   ##  ##   #####  ##  ##   ####   ##    #####    #####    **
 **   ##     ##  ##   ##  ##  ##      ## ##   ##      ##   ##   ##  ##   ##   **
 **   ##  ## ##  ##   ##  ##  ##      ####     ###    ##   ######   ######    **
 **    ##  ###   ##   ##  ##  ##      ## ##      ##   ##   ##       ##        **
 **     #######   #####   ##   #####  ##  ##  ####    ##    #####   ##        **
 **           ##                                                    ##        **
 **                                                                           **
 **                                                ... make the atoms dance   **
 **                                                                           **
 **            Copyright (C) by CP2K developers group (2000-2025)             **
 **                      J. Chem. Phys. 152, 194103 (2020)                    **
 **                                                                           **
 *******************************************************************************

 DFT| Spin restricted Kohn-Sham (RKS) calculation                            RKS
 DFT| Multiplicity                                                             1
 DFT| Number of spin states                                                    1
 DFT| Charge                                                                   0
 DFT| Self-interaction correction (SIC)                                       NO
 DFT| Cutoffs: density                                              1.000000E-10
 DFT|          gradient                                             1.000000E-10
 DFT|          tau                                                  1.000000E-10
 DFT|          cutoff_smoothing_range                               0.000000E+00
 DFT| XC density smoothing                                                  NONE
 DFT| XC derivatives                                                          PW

 FUNCTIONAL| PBE:
 FUNCTIONAL| J.P.Perdew, K.Burke, M.Ernzerhof, Phys. Rev. Letter, vol. 77, n 18,
 FUNCTIONAL|  pp. 3865-3868, (1996)sx=0.750sc=1.000{spin unpolarized}           


 QS| Method:                                                                GAPW
 QS| Density plane wave grid type                        NON-SPHERICAL FULLSPACE
 QS| Number of grid levels:                                                    4
 QS| Density cutoff [a.u.]:                                                250.0
 QS| Multi grid cutoff [a.u.]: 1) grid level                               250.0
 QS|                           2) grid level                                83.3
 QS|                           3) grid level                                27.8
 QS|                           4) grid level                                 9.3
 QS| Grid level progression factor:                                          3.0
 QS| Relative density cutoff [a.u.]:                                        50.0
 QS| Interaction thresholds: eps_pgf_orb:                                1.0E-12
 QS|                         eps_filter_matrix:                          0.0E+00
 QS|                         eps_core_charge:                            1.0E-14
 QS|                         eps_rho_gspace:                             1.0E-12
 QS|                         eps_rho_rspace:                             1.0E-12
 QS|                         eps_gvg_rspace:                             1.0E-06
 QS|                         eps_ppl:                                    1.0E-02
 QS|                         eps_ppnl:                                   1.0E-08
 QS| GAPW|      One center basis from orbital basis primitives
 QS| GAPW|                   eps_fit:                                    1.0E-04
 QS| GAPW|                   eps_iso:                                    1.0E-12
 QS| GAPW|                   eps_svd:                                    1.0E-08
 QS| GAPW|                   eps_cpc:                                    1.0E-12
 QS| GAPW|   atom-r-grid: quadrature:                                     GC_LOG
 QS| GAPW|      atom-s-grid:  max l :                                          8
 QS| GAPW|      max_l_rho0 :                                                   2


 ATOMIC KIND INFORMATION

  1. Atomic kind: H                                     Number of atoms:       6

     Orbital Basis Set                                       QZVPP-MOLOPT-GGA-ae

       Number of orbital shell sets:                                           2
       Number of orbital shells:                                              10
       Number of primitive Cartesian functions:                                8
       Number of Cartesian basis functions:                                   35
       Number of spherical basis functions:                                   30
       Norm type:                                                              2

       Normalised Cartesian orbitals:

                        Set   Shell   Orbital            Exponent    Coefficient

                          1       1    1s                3.130447      -1.377299
                                                         0.966277       1.394773
                                                         0.319288      -0.156078
                                                         0.106668      -0.030399

                          1       2    2s                3.130447       0.627930
                                                         0.966277       0.181305
                                                         0.319288       0.270118
                                                         0.106668      -0.141637

                          1       3    3s                3.130447       0.192674
                                                         0.966277       0.139459
                                                         0.319288       0.123455
                                                         0.106668       0.057384

                          1       4    2px               3.130447       5.209863
                                                         0.966277       0.306652
                                                         0.319288      -0.046374
                                                         0.106668       0.001892
                          1       4    2py               3.130447       5.209863
                                                         0.966277       0.306652
                                                         0.319288      -0.046374
                                                         0.106668       0.001892
                          1       4    2pz               3.130447       5.209863
                                                         0.966277       0.306652
                                                         0.319288      -0.046374
                                                         0.106668       0.001892

                          1       5    3px               3.130447      -3.914345
                                                         0.966277       2.603852
                                                         0.319288      -0.366926
                                                         0.106668       0.021211
                          1       5    3py               3.130447      -3.914345
                                                         0.966277       2.603852
                                                         0.319288      -0.366926
                                                         0.106668       0.021211
                          1       5    3pz               3.130447      -3.914345
                                                         0.966277       2.603852
                                                         0.319288      -0.366926
                                                         0.106668       0.021211

                          1       6    4px               3.130447       0.035970
                                                         0.966277       0.584401
                                                         0.319288       0.248663
                                                         0.106668      -0.011549
                          1       6    4py               3.130447       0.035970
                                                         0.966277       0.584401
                                                         0.319288       0.248663
                                                         0.106668      -0.011549
                          1       6    4pz               3.130447       0.035970
                                                         0.966277       0.584401
                                                         0.319288       0.248663
                                                         0.106668      -0.011549

                          1       7    3dx2              3.130447      12.003734
                                                         0.966277       0.024974
                                                         0.319288      -0.000993
                                                         0.106668       0.001171
                          1       7    3dxy              3.130447      20.791077
                                                         0.966277       0.043257
                                                         0.319288      -0.001719
                                                         0.106668       0.002027
                          1       7    3dxz              3.130447      20.791077
                                                         0.966277       0.043257
                                                         0.319288      -0.001719
                                                         0.106668       0.002027
                          1       7    3dy2              3.130447      12.003734
                                                         0.966277       0.024974
                                                         0.319288      -0.000993
                                                         0.106668       0.001171
                          1       7    3dyz              3.130447      20.791077
                                                         0.966277       0.043257
                                                         0.319288      -0.001719
                                                         0.106668       0.002027
                          1       7    3dz2              3.130447      12.003734
                                                         0.966277       0.024974
                                                         0.319288      -0.000993
                                                         0.106668       0.001171

                          1       8    4dx2              3.130447      -0.131032
                                                         0.966277       1.436860
                                                         0.319288       0.033800
                                                         0.106668      -0.003271
                          1       8    4dxy              3.130447      -0.226954
                                                         0.966277       2.488715
                                                         0.319288       0.058543
                                                         0.106668      -0.005666
                          1       8    4dxz              3.130447      -0.226954
                                                         0.966277       2.488715
                                                         0.319288       0.058543
                                                         0.106668      -0.005666
                          1       8    4dy2              3.130447      -0.131032
                                                         0.966277       1.436860
                                                         0.319288       0.033800
                                                         0.106668      -0.003271
                          1       8    4dyz              3.130447      -0.226954
                                                         0.966277       2.488715
                                                         0.319288       0.058543
                                                         0.106668      -0.005666
                          1       8    4dz2              3.130447      -0.131032
                                                         0.966277       1.436860
                                                         0.319288       0.033800
                                                         0.106668      -0.003271

                          1       9    4fx3              3.130447      10.892546
                                                         0.966277       0.904365
                                                         0.319288      -0.046765
                                                         0.106668      -0.000779
                          1       9    4fx2y             3.130447      24.356473
                                                         0.966277       2.022223
                                                         0.319288      -0.104570
                                                         0.106668      -0.001741
                          1       9    4fx2z             3.130447      24.356473
                                                         0.966277       2.022223
                                                         0.319288      -0.104570
                                                         0.106668      -0.001741
                          1       9    4fxy2             3.130447      24.356473
                                                         0.966277       2.022223
                                                         0.319288      -0.104570
                                                         0.106668      -0.001741
                          1       9    4fxyz             3.130447      42.186648
                                                         0.966277       3.502592
                                                         0.319288      -0.181121
                                                         0.106668      -0.003016
                          1       9    4fxz2             3.130447      24.356473
                                                         0.966277       2.022223
                                                         0.319288      -0.104570
                                                         0.106668      -0.001741
                          1       9    4fy3              3.130447      10.892546
                                                         0.966277       0.904365
                                                         0.319288      -0.046765
                                                         0.106668      -0.000779
                          1       9    4fy2z             3.130447      24.356473
                                                         0.966277       2.022223
                                                         0.319288      -0.104570
                                                         0.106668      -0.001741
                          1       9    4fyz2             3.130447      24.356473
                                                         0.966277       2.022223
                                                         0.319288      -0.104570
                                                         0.106668      -0.001741
                          1       9    4fz3              3.130447      10.892546
                                                         0.966277       0.904365
                                                         0.319288      -0.046765
                                                         0.106668      -0.000779

                          2       1    1s              190.541174       0.567744
                                                        28.485896       3.739611
                                                         6.826831       2.001669
                                                         1.919769      -0.029959

     RI Auxiliary Basis Set                                    aug-cc-pV5Z-OPTRI

       Number of orbital shell sets:                                          17
       Number of orbital shells:                                              17
       Number of primitive Cartesian functions:                               17
       Number of Cartesian basis functions:                                  115
       Number of spherical basis functions:                                   81
       Norm type:                                                              2

       Normalised Cartesian orbitals:

                        Set   Shell   Orbital            Exponent    Coefficient

                          1       1    1s                0.306678       0.293712

                          2       1    1fx3              0.582788       0.436871
                          2       1    1fx2y             0.582788       0.976873
                          2       1    1fx2z             0.582788       0.976873
                          2       1    1fxy2             0.582788       0.976873
                          2       1    1fxyz             0.582788       1.691994
                          2       1    1fxz2             0.582788       0.976873
                          2       1    1fy3              0.582788       0.436871
                          2       1    1fy2z             0.582788       0.976873
                          2       1    1fyz2             0.582788       0.976873
                          2       1    1fz3              0.582788       0.436871

                          3       1    1dx2              0.740674       0.973323
                          3       1    1dxy              0.740674       1.685844
                          3       1    1dxz              0.740674       1.685844
                          3       1    1dy2              0.740674       0.973323
                          3       1    1dyz              0.740674       1.685844
                          3       1    1dz2              0.740674       0.973323

                          4       1    1s                0.854346       0.633338

                          5       1    1px               0.977704       1.385796
                          5       1    1py               0.977704       1.385796
                          5       1    1pz               0.977704       1.385796

                          6       1    1gx4              1.260673       2.104225
                          6       1    1gx3y             1.260673       5.567256
                          6       1    1gx3z             1.260673       5.567256
                          6       1    1gx2y2            1.260673       7.187297
                          6       1    1gx2yz            1.260673      12.448763
                          6       1    1gx2z2            1.260673       7.187297
                          6       1    1gxy3             1.260673       5.567256
                          6       1    1gxy2z            1.260673      12.448763
                          6       1    1gxyz2            1.260673      12.448763
                          6       1    1gxz3             1.260673       5.567256
                          6       1    1gy4              1.260673       2.104225
                          6       1    1gy3z             1.260673       5.567256
                          6       1    1gy2z2            1.260673       7.187297
                          6       1    1gyz3             1.260673       5.567256
                          6       1    1gz4              1.260673       2.104225

                          7       1    1fx3              1.313322       2.718252
                          7       1    1fx2y             1.313322       6.078196
                          7       1    1fx2z             1.313322       6.078196
                          7       1    1fxy2             1.313322       6.078196
                          7       1    1fxyz             1.313322      10.527744
                          7       1    1fxz2             1.313322       6.078196
                          7       1    1fy3              1.313322       2.718252
                          7       1    1fy2z             1.313322       6.078196
                          7       1    1fyz2             1.313322       6.078196
                          7       1    1fz3              1.313322       2.718252

                          8       1    1dx2              1.868623       4.915553
                          8       1    1dxy              1.868623       8.513988
                          8       1    1dxz              1.868623       8.513988
                          8       1    1dy2              1.868623       4.915553
                          8       1    1dyz              1.868623       8.513988
                          8       1    1dz2              1.868623       4.915553

                          9       1    1s                2.242991       1.306263

                         10       1    1hx5              2.510965      14.785170
                         10       1    1hx4y             2.510965      44.355509
                         10       1    1hx4z             2.510965      44.355509
                         10       1    1hx3y2            2.510965      67.754159
                         10       1    1hx3yz            2.510965     117.353645
                         10       1    1hx3z2            2.510965      67.754159
                         10       1    1hx2y3            2.510965      67.754159
                         10       1    1hx2y2z           2.510965     151.502904
                         10       1    1hx2yz2           2.510965     151.502904
                         10       1    1hx2z3            2.510965      67.754159
                         10       1    1hxy4             2.510965      44.355509
                         10       1    1hxy3z            2.510965     117.353645
                         10       1    1hxy2z2           2.510965     151.502904
                         10       1    1hxyz3            2.510965     117.353645
                         10       1    1hxz4             2.510965      44.355509
                         10       1    1hy5              2.510965      14.785170
                         10       1    1hy4z             2.510965      44.355509
                         10       1    1hy3z2            2.510965      67.754159
                         10       1    1hy2z3            2.510965      67.754159
                         10       1    1hyz4             2.510965      44.355509
                         10       1    1hz5              2.510965      14.785170

                         11       1    1px               2.624145       4.760744
                         11       1    1py               2.624145       4.760744
                         11       1    1pz               2.624145       4.760744

                         12       1    1gx4              3.525409      35.584558
                         12       1    1gx3y             3.525409      94.147891
                         12       1    1gx3z             3.525409      94.147891
                         12       1    1gx2y2            3.525409     121.544404
                         12       1    1gx2yz            3.525409     210.521084
                         12       1    1gx2z2            3.525409     121.544404
                         12       1    1gxy3             3.525409      94.147891
                         12       1    1gxy2z            3.525409     210.521084
                         12       1    1gxyz2            3.525409     210.521084
                         12       1    1gxz3             3.525409      94.147891
                         12       1    1gy4              3.525409      35.584558
                         12       1    1gy3z             3.525409      94.147891
                         12       1    1gy2z2            3.525409     121.544404
                         12       1    1gyz3             3.525409      94.147891
                         12       1    1gz4              3.525409      35.584558

                         13       1    1fx3              3.758818      28.961421
                         13       1    1fx2y             3.758818      64.759707
                         13       1    1fx2z             3.758818      64.759707
                         13       1    1fxy2             3.758818      64.759707
                         13       1    1fxyz             3.758818     112.167102
                         13       1    1fxz2             3.758818      64.759707
                         13       1    1fy3              3.758818      28.961421
                         13       1    1fy2z             3.758818      64.759707
                         13       1    1fyz2             3.758818      64.759707
                         13       1    1fz3              3.758818      28.961421

                         14       1    1dx2              4.580832      23.608158
                         14       1    1dxy              4.580832      40.890528
                         14       1    1dxz              4.580832      40.890528
                         14       1    1dy2              4.580832      23.608158
                         14       1    1dyz              4.580832      40.890528
                         14       1    1dz2              4.580832      23.608158

                         15       1    1px               6.794656      15.636856
                         15       1    1py               6.794656      15.636856
                         15       1    1pz               6.794656      15.636856

                         16       1    1s                7.257089       3.151243

                         17       1    1px              22.632735      70.365761
                         17       1    1py              22.632735      70.365761
                         17       1    1pz              22.632735      70.365761

       Atomic covalent radius [Angstrom]:                                  0.320

       Atomic van der Waals radius [Angstrom]:                             1.090

     The atoms of this atomic kind are PAW atoms (GAPW):
       Hard Gaussian function radius:                                      1.200
       Rho0 radius:                                                        1.200
       Maximum GTO radius used for PAW projector construction:            24.566

     GAPW Soft Basis Set                                QZVPP-MOLOPT-GGA-ae_soft

       Number of orbital shell sets:                                           2
       Number of orbital shells:                                              10
       Number of primitive Cartesian functions:                                5
       Number of Cartesian basis functions:                                   35
       Number of spherical basis functions:                                   30
       Norm type:                                                              2

       Normalised Cartesian orbitals:

                        Set   Shell   Orbital            Exponent    Coefficient

                          1       1    1s                3.130447      -1.377299
                                                         0.966277       1.394773
                                                         0.319288      -0.156078
                                                         0.106668      -0.030399

                          1       2    2s                3.130447       0.627930
                                                         0.966277       0.181305
                                                         0.319288       0.270118
                                                         0.106668      -0.141637

                          1       3    3s                3.130447       0.192674
                                                         0.966277       0.139459
                                                         0.319288       0.123455
                                                         0.106668       0.057384

                          1       4    2px               3.130447       5.209863
                                                         0.966277       0.306652
                                                         0.319288      -0.046374
                                                         0.106668       0.001892
                          1       4    2py               3.130447       5.209863
                                                         0.966277       0.306652
                                                         0.319288      -0.046374
                                                         0.106668       0.001892
                          1       4    2pz               3.130447       5.209863
                                                         0.966277       0.306652
                                                         0.319288      -0.046374
                                                         0.106668       0.001892

                          1       5    3px               3.130447      -3.914345
                                                         0.966277       2.603852
                                                         0.319288      -0.366926
                                                         0.106668       0.021211
                          1       5    3py               3.130447      -3.914345
                                                         0.966277       2.603852
                                                         0.319288      -0.366926
                                                         0.106668       0.021211
                          1       5    3pz               3.130447      -3.914345
                                                         0.966277       2.603852
                                                         0.319288      -0.366926
                                                         0.106668       0.021211

                          1       6    4px               3.130447       0.035970
                                                         0.966277       0.584401
                                                         0.319288       0.248663
                                                         0.106668      -0.011549
                          1       6    4py               3.130447       0.035970
                                                         0.966277       0.584401
                                                         0.319288       0.248663
                                                         0.106668      -0.011549
                          1       6    4pz               3.130447       0.035970
                                                         0.966277       0.584401
                                                         0.319288       0.248663
                                                         0.106668      -0.011549

                          1       7    3dx2              3.130447      12.003734
                                                         0.966277       0.024974
                                                         0.319288      -0.000993
                                                         0.106668       0.001171
                          1       7    3dxy              3.130447      20.791077
                                                         0.966277       0.043257
                                                         0.319288      -0.001719
                                                         0.106668       0.002027
                          1       7    3dxz              3.130447      20.791077
                                                         0.966277       0.043257
                                                         0.319288      -0.001719
                                                         0.106668       0.002027
                          1       7    3dy2              3.130447      12.003734
                                                         0.966277       0.024974
                                                         0.319288      -0.000993
                                                         0.106668       0.001171
                          1       7    3dyz              3.130447      20.791077
                                                         0.966277       0.043257
                                                         0.319288      -0.001719
                                                         0.106668       0.002027
                          1       7    3dz2              3.130447      12.003734
                                                         0.966277       0.024974
                                                         0.319288      -0.000993
                                                         0.106668       0.001171

                          1       8    4dx2              3.130447      -0.131032
                                                         0.966277       1.436860
                                                         0.319288       0.033800
                                                         0.106668      -0.003271
                          1       8    4dxy              3.130447      -0.226954
                                                         0.966277       2.488715
                                                         0.319288       0.058543
                                                         0.106668      -0.005666
                          1       8    4dxz              3.130447      -0.226954
                                                         0.966277       2.488715
                                                         0.319288       0.058543
                                                         0.106668      -0.005666
                          1       8    4dy2              3.130447      -0.131032
                                                         0.966277       1.436860
                                                         0.319288       0.033800
                                                         0.106668      -0.003271
                          1       8    4dyz              3.130447      -0.226954
                                                         0.966277       2.488715
                                                         0.319288       0.058543
                                                         0.106668      -0.005666
                          1       8    4dz2              3.130447      -0.131032
                                                         0.966277       1.436860
                                                         0.319288       0.033800
                                                         0.106668      -0.003271

                          1       9    4fx3              3.130447      10.892546
                                                         0.966277       0.904365
                                                         0.319288      -0.046765
                                                         0.106668      -0.000779
                          1       9    4fx2y             3.130447      24.356473
                                                         0.966277       2.022223
                                                         0.319288      -0.104570
                                                         0.106668      -0.001741
                          1       9    4fx2z             3.130447      24.356473
                                                         0.966277       2.022223
                                                         0.319288      -0.104570
                                                         0.106668      -0.001741
                          1       9    4fxy2             3.130447      24.356473
                                                         0.966277       2.022223
                                                         0.319288      -0.104570
                                                         0.106668      -0.001741
                          1       9    4fxyz             3.130447      42.186648
                                                         0.966277       3.502592
                                                         0.319288      -0.181121
                                                         0.106668      -0.003016
                          1       9    4fxz2             3.130447      24.356473
                                                         0.966277       2.022223
                                                         0.319288      -0.104570
                                                         0.106668      -0.001741
                          1       9    4fy3              3.130447      10.892546
                                                         0.966277       0.904365
                                                         0.319288      -0.046765
                                                         0.106668      -0.000779
                          1       9    4fy2z             3.130447      24.356473
                                                         0.966277       2.022223
                                                         0.319288      -0.104570
                                                         0.106668      -0.001741
                          1       9    4fyz2             3.130447      24.356473
                                                         0.966277       2.022223
                                                         0.319288      -0.104570
                                                         0.106668      -0.001741
                          1       9    4fz3              3.130447      10.892546
                                                         0.966277       0.904365
                                                         0.319288      -0.046765
                                                         0.106668      -0.000779

                          2       1    1s                1.919769      -0.029959

     AE Potential information for                                            ALL

       Description:                                       All-electron potential
                                          Krack, Parrinello, PCCP 2, 2105 (2000)

       Gaussian exponent of the core charge distribution:              12.500000
       Electronic configuration (s p d ...):                           1   0   0

  2. Atomic kind: C                                     Number of atoms:       7

     Orbital Basis Set                                       QZVPP-MOLOPT-GGA-ae

       Number of orbital shell sets:                                           3
       Number of orbital shells:                                              17
       Number of primitive Cartesian functions:                               17
       Number of Cartesian basis functions:                                   72
       Number of spherical basis functions:                                   57
       Norm type:                                                              2

       Normalised Cartesian orbitals:

                        Set   Shell   Orbital            Exponent    Coefficient

                          1       1    1s                2.478506       1.727996
                                                         0.780870      -0.199624
                                                         0.292233      -0.067737
                                                         0.098416      -0.035850

                          1       2    2s                2.478506       0.315394
                                                         0.780870       0.280386
                                                         0.292233       0.076689
                                                         0.098416       0.022112

                          1       3    3s                2.478506      -0.182490
                                                         0.780870      -0.398499
                                                         0.292233       0.703297
                                                         0.098416      -0.230017

                          1       4    4s                2.478506       0.165589
                                                         0.780870      -0.388414
                                                         0.292233       0.135344
                                                         0.098416       0.109946

                          1       5    2px               2.478506       0.260970
                                                         0.780870       0.517259
                                                         0.292233       0.107296
                                                         0.098416       0.022701
                          1       5    2py               2.478506       0.260970
                                                         0.780870       0.517259
                                                         0.292233       0.107296
                                                         0.098416       0.022701
                          1       5    2pz               2.478506       0.260970
                                                         0.780870       0.517259
                                                         0.292233       0.107296
                                                         0.098416       0.022701

                          1       6    3px               2.478506       2.223364
                                                         0.780870      -0.845189
                                                         0.292233       0.096053
                                                         0.098416       0.070691
                          1       6    3py               2.478506       2.223364
                                                         0.780870      -0.845189
                                                         0.292233       0.096053
                                                         0.098416       0.070691
                          1       6    3pz               2.478506       2.223364
                                                         0.780870      -0.845189
                                                         0.292233       0.096053
                                                         0.098416       0.070691

                          1       7    4px               2.478506      -1.017055
                                                         0.780870       0.605594
                                                         0.292233      -0.564035
                                                         0.098416       0.101323
                          1       7    4py               2.478506      -1.017055
                                                         0.780870       0.605594
                                                         0.292233      -0.564035
                                                         0.098416       0.101323
                          1       7    4pz               2.478506      -1.017055
                                                         0.780870       0.605594
                                                         0.292233      -0.564035
                                                         0.098416       0.101323

                          1       8    3dx2              2.478506       2.448343
                                                         0.780870       0.653790
                                                         0.292233       0.040892
                                                         0.098416       0.003322
                          1       8    3dxy              2.478506       4.240655
                                                         0.780870       1.132397
                                                         0.292233       0.070827
                                                         0.098416       0.005754
                          1       8    3dxz              2.478506       4.240655
                                                         0.780870       1.132397
                                                         0.292233       0.070827
                                                         0.098416       0.005754
                          1       8    3dy2              2.478506       2.448343
                                                         0.780870       0.653790
                                                         0.292233       0.040892
                                                         0.098416       0.003322
                          1       8    3dyz              2.478506       4.240655
                                                         0.780870       1.132397
                                                         0.292233       0.070827
                                                         0.098416       0.005754
                          1       8    3dz2              2.478506       2.448343
                                                         0.780870       0.653790
                                                         0.292233       0.040892
                                                         0.098416       0.003322

                          1       9    4dx2              2.478506      -9.773314
                                                         0.780870       0.819539
                                                         0.292233      -0.068950
                                                         0.098416      -0.005958
                          1       9    4dxy              2.478506     -16.927876
                                                         0.780870       1.419484
                                                         0.292233      -0.119425
                                                         0.098416      -0.010320
                          1       9    4dxz              2.478506     -16.927876
                                                         0.780870       1.419484
                                                         0.292233      -0.119425
                                                         0.098416      -0.010320
                          1       9    4dy2              2.478506      -9.773314
                                                         0.780870       0.819539
                                                         0.292233      -0.068950
                                                         0.098416      -0.005958
                          1       9    4dyz              2.478506     -16.927876
                                                         0.780870       1.419484
                                                         0.292233      -0.119425
                                                         0.098416      -0.010320
                          1       9    4dz2              2.478506      -9.773314
                                                         0.780870       0.819539
                                                         0.292233      -0.068950
                                                         0.098416      -0.005958

                          1      10    5dx2              2.478506      -3.338505
                                                         0.780870      -0.174830
                                                         0.292233       0.240128
                                                         0.098416      -0.010366
                          1      10    5dxy              2.478506      -5.782460
                                                         0.780870      -0.302815
                                                         0.292233       0.415913
                                                         0.098416      -0.017954
                          1      10    5dxz              2.478506      -5.782460
                                                         0.780870      -0.302815
                                                         0.292233       0.415913
                                                         0.098416      -0.017954
                          1      10    5dy2              2.478506      -3.338505
                                                         0.780870      -0.174830
                                                         0.292233       0.240128
                                                         0.098416      -0.010366
                          1      10    5dyz              2.478506      -5.782460
                                                         0.780870      -0.302815
                                                         0.292233       0.415913
                                                         0.098416      -0.017954
                          1      10    5dz2              2.478506      -3.338505
                                                         0.780870      -0.174830
                                                         0.292233       0.240128
                                                         0.098416      -0.010366

                          1      11    4fx3              2.478506       8.481948
                                                         0.780870       0.343839
                                                         0.292233      -0.006792
                                                         0.098416       0.000929
                          1      11    4fx2y             2.478506      18.966213
                                                         0.780870       0.768847
                                                         0.292233      -0.015188
                                                         0.098416       0.002076
                          1      11    4fx2z             2.478506      18.966213
                                                         0.780870       0.768847
                                                         0.292233      -0.015188
                                                         0.098416       0.002076
                          1      11    4fxy2             2.478506      18.966213
                                                         0.780870       0.768847
                                                         0.292233      -0.015188
                                                         0.098416       0.002076
                          1      11    4fxyz             2.478506      32.850445
                                                         0.780870       1.331683
                                                         0.292233      -0.026307
                                                         0.098416       0.003596
                          1      11    4fxz2             2.478506      18.966213
                                                         0.780870       0.768847
                                                         0.292233      -0.015188
                                                         0.098416       0.002076
                          1      11    4fy3              2.478506       8.481948
                                                         0.780870       0.343839
                                                         0.292233      -0.006792
                                                         0.098416       0.000929
                          1      11    4fy2z             2.478506      18.966213
                                                         0.780870       0.768847
                                                         0.292233      -0.015188
                                                         0.098416       0.002076
                          1      11    4fyz2             2.478506      18.966213
                                                         0.780870       0.768847
                                                         0.292233      -0.015188
                                                         0.098416       0.002076
                          1      11    4fz3              2.478506       8.481948
                                                         0.780870       0.343839
                                                         0.292233      -0.006792
                                                         0.098416       0.000929

                          1      12    5fx3              2.478506      -4.423110
                                                         0.780870       0.717072
                                                         0.292233       0.037661
                                                         0.098416      -0.001713
                          1      12    5fx2y             2.478506      -9.890376
                                                         0.780870       1.603421
                                                         0.292233       0.084213
                                                         0.098416      -0.003831
                          1      12    5fx2z             2.478506      -9.890376
                                                         0.780870       1.603421
                                                         0.292233       0.084213
                                                         0.098416      -0.003831
                          1      12    5fxy2             2.478506      -9.890376
                                                         0.780870       1.603421
                                                         0.292233       0.084213
                                                         0.098416      -0.003831
                          1      12    5fxyz             2.478506     -17.130633
                                                         0.780870       2.777207
                                                         0.292233       0.145862
                                                         0.098416      -0.006636
                          1      12    5fxz2             2.478506      -9.890376
                                                         0.780870       1.603421
                                                         0.292233       0.084213
                                                         0.098416      -0.003831
                          1      12    5fy3              2.478506      -4.423110
                                                         0.780870       0.717072
                                                         0.292233       0.037661
                                                         0.098416      -0.001713
                          1      12    5fy2z             2.478506      -9.890376
                                                         0.780870       1.603421
                                                         0.292233       0.084213
                                                         0.098416      -0.003831
                          1      12    5fyz2             2.478506      -9.890376
                                                         0.780870       1.603421
                                                         0.292233       0.084213
                                                         0.098416      -0.003831
                          1      12    5fz3              2.478506      -4.423110
                                                         0.780870       0.717072
                                                         0.292233       0.037661
                                                         0.098416      -0.001713

                          1      13    5gx4              2.478506       5.558350
                                                         0.780870       0.445812
                                                         0.292233      -0.003241
                                                         0.098416      -0.000135
                          1      13    5gx3y             2.478506      14.706012
                                                         0.780870       1.179508
                                                         0.292233      -0.008575
                                                         0.098416      -0.000357
                          1      13    5gx3z             2.478506      14.706012
                                                         0.780870       1.179508
                                                         0.292233      -0.008575
                                                         0.098416      -0.000357
                          1      13    5gx2y2            2.478506      18.985380
                                                         0.780870       1.522738
                                                         0.292233      -0.011071
                                                         0.098416      -0.000460
                          1      13    5gx2yz            2.478506      32.883644
                                                         0.780870       2.637460
                                                         0.292233      -0.019175
                                                         0.098416      -0.000797
                          1      13    5gx2z2            2.478506      18.985380
                                                         0.780870       1.522738
                                                         0.292233      -0.011071
                                                         0.098416      -0.000460
                          1      13    5gxy3             2.478506      14.706012
                                                         0.780870       1.179508
                                                         0.292233      -0.008575
                                                         0.098416      -0.000357
                          1      13    5gxy2z            2.478506      32.883644
                                                         0.780870       2.637460
                                                         0.292233      -0.019175
                                                         0.098416      -0.000797
                          1      13    5gxyz2            2.478506      32.883644
                                                         0.780870       2.637460
                                                         0.292233      -0.019175
                                                         0.098416      -0.000797
                          1      13    5gxz3             2.478506      14.706012
                                                         0.780870       1.179508
                                                         0.292233      -0.008575
                                                         0.098416      -0.000357
                          1      13    5gy4              2.478506       5.558350
                                                         0.780870       0.445812
                                                         0.292233      -0.003241
                                                         0.098416      -0.000135
                          1      13    5gy3z             2.478506      14.706012
                                                         0.780870       1.179508
                                                         0.292233      -0.008575
                                                         0.098416      -0.000357
                          1      13    5gy2z2            2.478506      18.985380
                                                         0.780870       1.522738
                                                         0.292233      -0.011071
                                                         0.098416      -0.000460
                          1      13    5gyz3             2.478506      14.706012
                                                         0.780870       1.179508
                                                         0.292233      -0.008575
                                                         0.098416      -0.000357
                          1      13    5gz4              2.478506       5.558350
                                                         0.780870       0.445812
                                                         0.292233      -0.003241
                                                         0.098416      -0.000135

                          2       1    1s              105.226643       2.019983
                                                        24.915833       4.884210
                                                         7.802292       0.922134
                                                         3.210992       0.077285
                                                         1.569670       0.127026

                          2       2    2s              105.226643      -2.503665
                                                        24.915833      -1.789628
                                                         7.802292       1.285480
                                                         3.210992       1.243151
                                                         1.569670       0.060045

                          2       3    2px             105.226643       2.754378
                                                        24.915833       3.821590
                                                         7.802292       3.687249
                                                         3.210992       1.952607
                                                         1.569670       1.401337
                          2       3    2py             105.226643       2.754378
                                                        24.915833       3.821590
                                                         7.802292       3.687249
                                                         3.210992       1.952607
                                                         1.569670       1.401337
                          2       3    2pz             105.226643       2.754378
                                                        24.915833       3.821590
                                                         7.802292       3.687249
                                                         3.210992       1.952607
                                                         1.569670       1.401337

                          3       1    1s            67025.107019       0.301273
                                                     10039.963354       0.840959
                                                      2284.844403       1.414087
                                                       647.155825       1.978250
                                                       211.194000       3.614759
                                                        76.386303       5.885133
                                                        29.429391       1.640818
                                                        12.033162       2.449859

     RI Auxiliary Basis Set                                    aug-cc-pV5Z-OPTRI

       Number of orbital shell sets:                                          22
       Number of orbital shells:                                              22
       Number of primitive Cartesian functions:                               22
       Number of Cartesian basis functions:                                  188
       Number of spherical basis functions:                                  122
       Norm type:                                                              2

       Normalised Cartesian orbitals:

                        Set   Shell   Orbital            Exponent    Coefficient

                          1       1    1gx4              0.114786       0.002892
                          1       1    1gx3y             0.114786       0.007650
                          1       1    1gx3z             0.114786       0.007650
                          1       1    1gx2y2            0.114786       0.009877
                          1       1    1gx2yz            0.114786       0.017107
                          1       1    1gx2z2            0.114786       0.009877
                          1       1    1gxy3             0.114786       0.007650
                          1       1    1gxy2z            0.114786       0.017107
                          1       1    1gxyz2            0.114786       0.017107
                          1       1    1gxz3             0.114786       0.007650
                          1       1    1gy4              0.114786       0.002892
                          1       1    1gy3z             0.114786       0.007650
                          1       1    1gy2z2            0.114786       0.009877
                          1       1    1gyz3             0.114786       0.007650
                          1       1    1gz4              0.114786       0.002892

                          2       1    1px               0.121920       0.102691
                          2       1    1py               0.121920       0.102691
                          2       1    1pz               0.121920       0.102691

                          3       1    1s                0.152658       0.174060

                          4       1    1px               0.299745       0.316140
                          4       1    1py               0.299745       0.316140
                          4       1    1pz               0.299745       0.316140

                          5       1    1s                0.384933       0.348296

                          6       1    1hx5              0.391317       0.035161
                          6       1    1hx4y             0.391317       0.105483
                          6       1    1hx4z             0.391317       0.105483
                          6       1    1hx3y2            0.391317       0.161128
                          6       1    1hx3yz            0.391317       0.279083
                          6       1    1hx3z2            0.391317       0.161128
                          6       1    1hx2y3            0.391317       0.161128
                          6       1    1hx2y2z           0.391317       0.360294
                          6       1    1hx2yz2           0.391317       0.360294
                          6       1    1hx2z3            0.391317       0.161128
                          6       1    1hxy4             0.391317       0.105483
                          6       1    1hxy3z            0.391317       0.279083
                          6       1    1hxy2z2           0.391317       0.360294
                          6       1    1hxyz3            0.391317       0.279083
                          6       1    1hxz4             0.391317       0.105483
                          6       1    1hy5              0.391317       0.035161
                          6       1    1hy4z             0.391317       0.105483
                          6       1    1hy3z2            0.391317       0.161128
                          6       1    1hy2z3            0.391317       0.161128
                          6       1    1hyz4             0.391317       0.105483
                          6       1    1hz5              0.391317       0.035161

                          7       1    1fx3              0.540840       0.369283
                          7       1    1fx2y             0.540840       0.825742
                          7       1    1fx2z             0.540840       0.825742
                          7       1    1fxy2             0.540840       0.825742
                          7       1    1fxyz             0.540840       1.430227
                          7       1    1fxz2             0.540840       0.825742
                          7       1    1fy3              0.540840       0.369283
                          7       1    1fy2z             0.540840       0.825742
[...]
 library.
 https://doi.org/10.1016/j.parco.2014.03.012

 M. Guidon, J. Hutter, J. VandeVondele.
 J. Chem. Theory Comput. 5, 3010-3021 (2009).
 Robust Periodic Hartree-Fock Exchange for Large-Scale Simulations Using 
 Gaussian Basis Sets.
 https://doi.org/10.1021/ct900494g

 M. Guidon, F. Schiffmann, J. Hutter, J. VandeVondele.
 J. Chem. Phys. 128, 214104 (2008).
 Ab initio molecular dynamics using hybrid density functionals.
 https://doi.org/10.1063/1.2931945

 L. Genovese, T. Deutsch, S. Goedecker.
 J. Chem. Phys. 127, 054704 (2007).
 Efficient and accurate three-dimensional Poisson solver for surface problems.
 https://doi.org/10.1063/1.2754685

 J. VandeVondele, J. Hutter.
 J. Chem. Phys. 127, 114105 (2007).
 Gaussian basis sets for accurate calculations on molecular systems in gas and 
 condensed phases.
 https://doi.org/10.1063/1.2770708

 L. Genovese, T. Deutsch, A. Neelov, S. Goedecker, G. Beylkin.
 J. Chem. Phys. 125, 074105 (2006).
 Efficient solution of Poisson's equation with free boundary conditions.
 https://doi.org/10.1063/1.2335442

 M. Iannuzzi, T. Chassaing, T. Wallman, J. Hutter.
 CHIMIA 59, 499-503 (2005).
 Ground and excited state density functional calculations with the Gaussian and 
 augmented-plane-wave method.
 https://doi.org/10.2533/000942905777676164

 M. Frigo, S. G. Johnson.
 Proc. IEEE 93, 216-231 (2005).
 The design and implementation of FFTW3.
 https://doi.org/10.1109/JPROC.2004.840301

 R. L. Martin.
 J. Chem. Phys. 118, 4775-4777 (2003).
 Natural transition orbitals.
 https://doi.org/10.1063/1.1558471

 M. Krack, M. Parrinello.
 Phys. Chem. Chem. Phys. 2, 2105-2112 (2000).
 All-electron ab-initio molecular dynamics.
 https://doi.org/10.1039/b001167n

 G. Lippert, J. Hutter, M. Parrinello.
 Theor. Chem. Acc. 103, 124-140 (1999).
 The Gaussian and augmented-plane-wave density functional method for ab initio 
 molecular dynamics simulations.
 https://doi.org/10.1007/s002140050523

 J. P. Perdew, K. Burke, M. Ernzerhof.
 Phys. Rev. Lett. 77, 3865-3868 (1996).
 Generalized gradient approximation made simple.
 https://doi.org/10.1103/PhysRevLett.77.3865


 -------------------------------------------------------------------------------
 -                                                                             -
 -                                T I M I N G                                  -
 -                                                                             -
 -------------------------------------------------------------------------------
 SUBROUTINE                       CALLS  ASD         SELF TIME        TOTAL TIME
                                MAXIMUM       AVERAGE  MAXIMUM  AVERAGE  MAXIMUM
 CP2K                                 1  1.0    0.048    0.067 1532.319 1532.320
 qs_energies                          1  2.0    0.001    0.001 1529.031 1529.032
 integrate_four_center              432  9.8   35.371   43.576 1049.462 1049.661
 scf_env_do_scf                       1  3.0    0.000    0.000  964.358  964.366
 scf_env_do_scf_inner_loop           72  4.0    0.002    0.005  964.358  964.365
 qs_ks_update_qs_env                 72  5.0    0.000    0.001  932.284  932.456
 rebuild_ks_matrix                   72  6.0    0.000    0.000  932.274  932.445
 qs_ks_build_kohn_sham_matrix        72  7.0    0.011    0.012  932.274  932.445
 hfx_ks_matrix                       72  8.0    0.003    0.004  826.021  826.083
 integrate_four_center_main         432 10.8    5.763   17.831  640.411  725.253
 integrate_four_center_bin        53366 11.8  634.647  717.741  634.647  717.741
 qs_energies_properties               1  3.0    0.000    0.000  561.308  561.308
 tddfpt                               1  4.0    0.000    0.000  561.308  561.308
 tddfpt_energies                      1  5.0    0.000    0.001  561.216  561.216
 tddfpt_davidson_solver               1  6.0    0.002    0.004  556.850  556.850
 tddfpt_compute_Aop_evects            9  7.0    0.000    0.000  553.478  553.478
 fhxc_kernel                          9  8.0    0.008    0.009  323.538  323.538
 tddfpt_apply_hfx                     9  8.0    0.004    0.004  228.396  228.396
 tddft_hfx_matrix                   360  9.0    0.010    0.011  223.458  223.639
 calc_screening_functions             1 10.0  197.154  212.092  199.177  214.109
 mp_sync                           2290 11.5  136.029  202.031  136.029  202.031
 tddfpt_apply_coulomb               180  9.0    0.003    0.005  137.864  139.398
 fft_wrap_pw1pw2                   5126 11.1    0.082    0.116  135.162  136.863
 pw_poisson_solve                   252  9.4    1.461    1.579  133.743  135.248
 fft_wrap_pw1pw2_250               3608 12.1    2.484    2.696  130.984  132.793
 fft3d_ps                          5126 13.1   23.854   25.339  124.409  126.435
 mp_alltoall_z22v                  5126 15.1   94.747  104.717   94.747  104.717
 prepare_gapw_den                   253  8.7    0.008    0.010  101.788  101.925
 calculate_rho_atom                1012  9.7    7.774   83.609    7.774   83.610
 x_to_yz                           2092 13.7    2.440    2.717   79.674   82.200
 gaVxcgb_GC                         756  9.7    1.203   80.326    1.203   80.326
 mp_sum_dv                        41731  8.8   77.070   78.521   77.070   78.521
 calculate_xc_2nd_deriv_atom        180  9.0    0.139    4.765    1.031   62.677
 qs_rho_update_rho_low              254  7.8    0.003    0.003   61.640   61.654
 ps_wavelet_solve                   252 10.4   25.238   36.463   54.318   54.526
 calculate_rho_elec                 254  8.8    0.554    0.594   51.641   51.656
 integrate_v_rspace                 252  9.0    0.006    0.007   49.260   49.542
 density_rs2pw                      254  9.8    0.015    0.018   34.629   37.960
 mp_sum_d                         14875  7.2   32.902   36.591   32.902   36.591
 mp_alltoall_d54                    252 11.4   13.619   34.199   13.619   34.199
 xc_pw_derive                      1515 11.0    0.014    0.018   32.194   33.649
 mp_alltoall_d11v                 15932 11.6   29.404   33.318   29.404   33.318
 transfer_rs2pw                    1270 10.8    0.032    0.060   28.182   31.555
 tddfpt_apply_xc_analytic           180  9.0    0.126    0.157   28.039   28.195
 mp_waitany                       66834 12.8   22.660   26.213   22.660   26.213
 potential_pw2rs                    252 10.0    0.053    0.070   24.882   25.242
 grid_collocate_task_list           254  9.8   15.576   25.135   15.576   25.135
 yz_to_x                           2022 14.5    1.843    2.263   19.184   24.509
 rs_gather_matrices                 252 10.0    0.028    0.042   23.420   24.509
 mp_waitall_1                    514032 13.2   20.409   24.415   20.409   24.415
 calculate_vxc_atom                  72  8.0    0.063    0.981   24.094   24.095
 grid_integrate_task_list           252 10.0    0.951   23.642    0.951   23.642
 transfer_pw2rs                    1261 10.9    0.017    0.022   22.872   23.134
 xc_pw_divergence                   252 10.7    0.008    0.010   21.571   22.782
 transfer_rs2pw_250                 508 11.8    4.250    4.851   15.978   21.328
 mp_sum_l                          5970 10.6   15.159   21.136   15.159   21.136
 integrate_four_center_load         432 10.8    0.002    0.003   14.927   20.902
 hfx_load_balance                     1 11.0    0.000    0.000   14.925   20.900
 hfx_load_balance_range               1 12.0    0.000    0.000   14.900   20.875
 mp_sum_dm                        13025 10.0   18.732   19.182   18.732   19.182
 integrate_vhg0_rspace              252  9.4    2.073    2.463   18.236   18.362
 mp_alltoall_d45                    253 11.4   15.318   17.823   15.318   17.823
 xc_calc_2nd_deriv_analytical      1260 10.1    0.876    1.071   16.396   16.490
 integrate_four_center_getP         432 10.8    0.781    1.020   13.965   15.689
 sum_up_and_integrate                72  8.0    0.001    0.001   13.588   13.632
 transfer_pw2rs_250                 505 11.7    3.857    4.294   12.113   12.656
 qs_vxc_create                       72  8.0    0.001    0.001   12.514   12.515
 xc_vxc_pw_create                    72  9.0    0.202    0.233   12.513   12.514
 put_rho0_on_grid                   253  9.7    0.599    0.829   12.129   12.265
 mp_isendrecv_dv                 294120 12.3    3.840   10.422    3.840   10.422
 integrate_four_center_dist_KS      432 10.8    0.377    0.422   10.094   10.119
 cp_fm_syevd                        123  7.2    0.001    0.001   10.053   10.070
 calculate_rho_atom_coeff           254  8.8    0.679    1.261    9.997    9.997
 cp_fm_redistribute_end             123  8.2    5.005    9.886    5.017    9.893
 cp_dbcsr_sm_fm_multiply           1126  8.6    0.024    0.027    9.531    9.830
 cp_fm_syevd_base                   123  8.2    4.865    9.749    4.865    9.749
 qs_scf_new_mos                      72  5.0    0.001    0.001    9.078    9.138
 eigensolver_symm                    72  6.0    0.003    0.004    8.091    8.101
 Vh_1c_gg_integrals                 252  9.4    0.147    7.208    7.319    7.912
 transfer_rs2pw_90                  254 11.8    0.863    1.053    5.163    7.841
 dbcsr_complete_redistribute       3753 10.5    0.174    0.310    6.134    6.428
 xc_rho_set_and_dset_create          73 10.0    0.165    0.216    5.767    6.207
 calculate_rho0_atom               1012  9.7    5.685    6.021    5.685    6.021
 gspace_mixing                       71  5.0    0.154    0.165    5.526    5.527
 transfer_rs2pw_30                  254 11.8    2.400    2.527    5.388    5.462
 transfer_pw2rs_30                  252 12.0    2.299    2.506    5.155    5.339
 copy_fm_to_dbcsr                  2531  9.6    0.013    0.014    4.235    4.526
 copy_dbcsr_to_fm                  1220  9.3    0.017    0.019    4.155    4.522
 transfer_pw2rs_90                  252 12.0    0.934    1.055    3.885    4.496
 powell_optimize                1562094 11.0    3.905    4.357    3.905    4.357
 dbcsr_multiply_generic            1558 10.3    0.072    0.080    3.991    4.320
 calc_pair_dist_radii                 1 10.0    1.799    2.197    3.681    4.143
 mp_sendrecv_dv                  109220 12.8    3.997    4.122    3.997    4.122
 broyden_mixing                      71  6.0    3.859    3.995    3.979    4.064
 pw_scatter_p                      2596 12.8    3.335    3.927    3.335    3.927
 rs_grid_zero                      1263 11.9    3.344    3.434    3.344    3.434
 tddfpt_print_nto_analysis            1  6.0    0.003    0.004    3.412    3.413
 pw_gather_p                       2530 13.4    2.798    3.246    2.798    3.246
 cp_dbcsr_sm_fm_multiply_core      1126  9.6    0.003    0.003    2.881    3.190
 cp2k_distribution_to_z_slices      252 10.4    1.176    1.280    2.556    3.141
 fft_wrap_pw1pw2_90                 506 11.9    0.076    0.112    2.583    2.919
 update_ks_atom                     252  8.7    0.430    1.050    2.258    2.858
 qs_energies_init_hamiltonians        1  3.0    0.000    0.000    2.844    2.844
 build_core_hamiltonian_matrix        1  4.0    0.000    0.000    2.833    2.833
 overlap_condnum                      1  5.0    0.000    0.001    2.813    2.831
 create_qs_kind_set                   1  2.0    0.000    0.000    2.810    2.811
 read_qs_kind                         4  3.0    1.560    1.606    2.810    2.811
 multiply_cannon                   1558 11.3    0.195    0.202    2.519    2.797
 cp_fm_geeig                         20  7.0    0.001    0.001    2.772    2.774
 pw_derive                         2271 11.8    2.507    2.673    2.507    2.673
 mp_alltoall_i11v                 12480 11.5    2.628    2.630    2.628    2.630
 arnoldi_conjugate_gradient           5  6.0    0.055    0.066    2.577    2.577
 dbcsr_desymmetrize_deep           1221 10.3    0.035    0.050    2.140    2.503
 mp_alltoall_i22                   4974 11.4    1.655    2.305    1.655    2.305
 multiply_cannon_loop              1558 12.3    0.364    0.387    1.951    2.293
 tddfpt_orthonormalize_psi1_psi      10  6.9    0.024    0.025    1.907    1.908
 cp_dbcsr_plus_fm_fm_t              252  8.4    0.004    0.004    1.836    1.878
 pw_copy                           3425 11.0    1.724    1.873    1.724    1.873
 mp_bcast_dm                       8568  9.7    1.827    1.869    1.827    1.869
 transfer_pw2rs_10                  252 12.0    0.603    0.682    1.702    1.833
 parallel_gemm_fm                  1675  8.2    0.002    0.002    1.793    1.811
 parallel_gemm_fm_gemm             1675  9.2    0.002    0.003    1.791    1.809
 cp_fm_gemm                        1675 10.2    1.788    1.807    1.788    1.807
 xc_functional_eval                1585 10.9    0.001    0.006    0.954    1.734
 pbe_lda_eval                      1585 11.9    0.953    1.728    0.953    1.728
 transfer_rs2pw_10                  254 11.8    0.614    0.654    1.622    1.660
 dbcsr_sym_matrix_vector_mult      8215  7.0    0.130    0.143    1.437    1.645
 mp_irecv_dm3                     12150 12.8    0.611    1.627    0.611    1.627
 mp_isend_dv                     166212 13.8    0.820    1.581    0.820    1.581
 tddfpt_apply_energy_diff             9  8.0    0.001    0.001    1.544    1.544
 pw_poisson_set                     253 10.4    0.006    0.007    1.505    1.538
 mp_isend_dm3                     12150 12.8    0.692    1.528    0.692    1.528
 pw_copy_to_array                  2530 13.4    1.171    1.375    1.171    1.375
 tddfpt_compute_residual_vects        8  7.0    0.001    0.001    1.308    1.309
 parser_read_line                332850  4.0    0.112    0.122    1.250    1.278
 parser_read_line_low               357  5.0    0.096    0.514    1.139    1.167
 pw_integral_ab_c1d_c1d_gs          252 10.4    0.819    0.825    1.038    1.145
 make_m2s                          3116 11.3    0.063    0.070    0.984    1.132
 broadcast_input_information        357  6.0    0.234    0.267    1.043    1.111
 multiply_cannon_metrocomm3       56088 13.3    0.092    0.096    0.510    1.059
 pw_axpy                           2708 10.8    0.935    1.059    0.935    1.059
 hybrid_alltoall_any               4337 13.5    0.042    0.072    0.944    1.058
 fft_wrap_pw1pw2_30                 506 11.9    0.014    0.015    1.014    1.051
 mp_alltoall_z11v                  1012 14.9    0.987    1.027    0.987    1.027
 pw_copy_from_array                2596 12.8    0.788    0.978    0.788    0.978
 make_images                       3116 12.3    0.182    0.238    0.816    0.958
 pw_zero                           2778 10.6    0.803    0.910    0.803    0.910
 mp_max_i                           753  5.0    0.330    0.900    0.330    0.900
 multiply_cannon_metrocomm1       56088 13.3    0.065    0.068    0.339    0.807
 dbcsr_add_d                      12377  7.0    0.011    0.013    0.110    0.747
 dbcsr_add_anytype                12377  8.0    0.015    0.094    0.099    0.734
 dbcsr_rep_row_to_rep_col_vec      8215  8.0    0.044    0.057    0.309    0.691
 multiply_cannon_metrocomm4       52972 13.3    0.157    0.166    0.342    0.671
 yz_to_xz                           504 14.0    0.045    0.050    0.635    0.670
 dbcsr_finalize                   20035 11.3    0.049    0.185    0.219    0.650
 tddfpt_construct_ground_state_       1  6.0    0.000    0.000    0.643    0.644
 pw_poisson_rebuild                 252 10.4    0.000    0.000    0.614    0.638
 ps_wavelet_create                    1 10.0    0.000    0.000    0.614    0.638
 RS_z_slice_distribution              1 11.0    0.499    0.599    0.614    0.638
 dbcsr_col_vec_to_rep_row          8215  8.0    0.059    0.072    0.439    0.589
 calculate_dm_sparse                 72  6.0    0.001    0.001    0.539    0.574
 mp_bcast_i_src                    1428  7.0    0.346    0.545    0.346    0.545
 rs_scatter_matrices                254  9.8    0.004    0.012    0.515    0.536
 mp_bcast_am_src                    357  7.0    0.413    0.473    0.442    0.514
 fft_wrap_pw1pw2_10                 506 11.9    0.005    0.005    0.500    0.508
 xc_2nd_deriv_of_r                 1080 10.0    0.002    0.087    0.013    0.505
 multiply_cannon_multrec          56088 13.3    0.105    0.477    0.112    0.485
 init_scf_run                         1  3.0    0.000    0.000    0.450    0.451
 mp_rank_compare                   5126 14.1    0.419    0.438    0.419    0.438
 xz_to_yz                           508 13.8    0.030    0.035    0.428    0.435
 cp_fm_trace_a1b1t1_aa            16500  8.0    0.080    0.086    0.416    0.421
 mp_irecv_dv                     165304 13.8    0.156    0.416    0.156    0.416
 offload_free_buffer                260 10.2    0.269    0.384    0.269    0.384
 qs_init_subsys                       1  2.0    0.009    0.010    0.370    0.370
 mp_bcast_dv                       8338  9.0    0.206    0.361    0.206    0.361
 multiply_cannon_metrocomm2       51414 13.3    0.153    0.161    0.283    0.348
 make_images_sizes                 3116 13.3    0.004    0.004    0.328    0.348
 mp_alltoall_i44                   3116 14.3    0.324    0.344    0.324    0.344
 dbcsr_merge_all                  18049 12.3    0.093    0.250    0.125    0.344
 mp_allgather_i34                  1558 12.3    0.257    0.336    0.257    0.336
 scf_env_initial_rho_setup            1  4.0    0.000    0.000    0.329    0.330
 cp_fm_triangular_multiply           60  8.0    0.327    0.329    0.327    0.329
 cp_fm_symm                          72  7.0    0.301    0.312    0.301    0.312
 prepare_dr1dr                     1260 11.1    0.271    0.311    0.271    0.311
 qs_env_setup                         1  3.0    0.000    0.000    0.291    0.307
 qs_env_rebuild_pw_env                2  3.5    0.000    0.000    0.289    0.307
 pw_env_rebuild                       1  5.0    0.001    0.001    0.289    0.306
 make_images_data                  3116 13.3    0.040    0.052    0.144    0.300
 scale_and_distribute               504 11.4    0.258    0.278    0.258    0.278
 dbcsr_iterator_start            122207  9.5    0.142    0.210    0.170    0.273
 mp_cart_sub                       2444 11.3    0.264    0.266    0.264    0.266
 dbcsr_create_new                 65178 10.4    0.182    0.193    0.240    0.256
 dbcsr_copy                       36796  7.9    0.131    0.144    0.224    0.250
 cp_fm_cholesky_decompose            20  8.0    0.229    0.229    0.229    0.229
 dbcsr_sym_matrix_vector_mult_l    8215  8.0    0.051    0.197    0.076    0.220
 mp_cart_create                    2233 10.6    0.187    0.207    0.189    0.209
 cp_fm_redistribute_start           123  8.2    0.130    0.141    0.170    0.191
 cp_fm_triangular_invert             20  8.0    0.181    0.182    0.181    0.182
 pw_grid_setup                        4  6.0    0.000    0.000    0.161    0.177
 pw_grid_setup_internal               4  7.0    0.003    0.004    0.161    0.177
 dbcsr_iterator_stop             122207  9.5    0.105    0.143    0.128    0.170
 tddfpt_compute_ritz_vects            9  7.0    0.007    0.008    0.157    0.158
 pw_scale                           648  9.5    0.134    0.154    0.134    0.154
 -------------------------------------------------------------------------------

 The number of warnings for this run is : 1
 
 -------------------------------------------------------------------------------
  **** **** ******  **  PROGRAM ENDED AT                 2025-04-02 22:23:05.183
 ***** ** ***  *** **   PROGRAM RAN ON                              i03r11c02s12
 **    ****   ******    PROGRAM RAN BY                                   di38fab
 ***** **    ** ** **   PROGRAM PROCESS ID                               2279524
  **** **  *******  **  PROGRAM STOPPED IN /hppfs/scratch/04/di38fab/07_MOL_non_
                                           aug/05_MOL_non_aug/05_MOL/aUKBqsEOTmq
                                           69kFe5R_nOg/5k_set_final_qzvp/WADQOJ/
                                           QZVPP/TDDFT
