 DBCSR| CPU Multiplication driver                                           BLAS (U)
 DBCSR| Multrec recursion limit                                              512 (U)
 DBCSR| Multiplication stack size                                           1000 (D)
 DBCSR| Maximum elements for images                                    UNLIMITED (U)
 DBCSR| Multiplicative factor virtual images                                   1 (U)
 DBCSR| Use multiplication densification                                       T (D)
 DBCSR| Multiplication size stacks                                             3 (U)
 DBCSR| Use memory pool for CPU allocation                                     F (U)
 DBCSR| Number of 3D layers                                               SINGLE (U)
 DBCSR| Use MPI memory allocation                                              F (U)
 DBCSR| Use RMA algorithm                                                      F (U)
 DBCSR| Use Communication thread                                               T (U)
 DBCSR| Communication thread load                                             45 (D)
 DBCSR| MPI: My process id                                                     0
 DBCSR| MPI: Number of processes                                             512
 DBCSR| OMP: Current number of threads                                        12
 DBCSR| OMP: Max number of threads                                            12
 DBCSR| Split modifier for TAS multiplication algorithm                  1.0E+00 (U)


  **** **** ******  **  PROGRAM STARTED AT               2025-04-28 02:00:12.556
 ***** ** ***  *** **   PROGRAM STARTED ON                          i01r07c06s02
 **    ****   ******    PROGRAM STARTED BY                               di38fab
 ***** **    ** ** **   PROGRAM PROCESS ID                               1991116
  **** **  *******  **  PROGRAM STARTED IN /hppfs/scratch/04/di38fab/07_MOL_non_
                                           aug/05_MOL_non_aug/05_MOL/aUKBqsEOTmq
                                           69kFe5R_nOg/5k_set_final_qzvp/LEFMUG/
                                           cc-pV5Z/GW+BSE

 CP2K| version string:                 CP2K version 2025.1 (Development Version)
 CP2K| source code revision number:                             unknown revision
 CP2K| cp2kflags: omp libint fftw3 libxc parallel scalapack max_contr=4         
 CP2K| is freely available from                            https://www.cp2k.org/
 CP2K| Program compiled at                         Thu Apr 10 16:20:23 CEST 2025
 CP2K| Program compiled on                                               login01
 CP2K| Program compiled for                                        Supermuc-foss
 CP2K| Data directory path                  /hppfs/work/pn36zo/di38fab/cp2k/data
 CP2K| Input file name                                                    GW.inp

 GLOBAL| Force Environment number                                              1
 GLOBAL| Basis set file name            /hppfs/scratch/04/di38fab/04_TMD/BASIS_A
 GLOBAL| Potential file name            /hppfs/work/pn36zo/di38fab/cp2k/data/ALL
 GLOBAL| MM Potential file name                                     MM_POTENTIAL
 GLOBAL| Coordinate file name                                      __STD_INPUT__
 GLOBAL| Method name                                                        CP2K
 GLOBAL| Project name                                                       MoS2
 GLOBAL| Run type                                                         ENERGY
 GLOBAL| FFT library                                                       FFTW3
 GLOBAL| Diagonalization library                                       ScaLAPACK
 GLOBAL| DGEMM library                                                      BLAS
 GLOBAL| Orthonormality check for eigenvectors                          DISABLED
 GLOBAL| Matrix multiplication library                                 ScaLAPACK
 GLOBAL| All-to-all communication in single precision                          F
 GLOBAL| FFTs using library dependent lengths                                  F
 GLOBAL| Grid backend                                                       AUTO
 GLOBAL| Global print level                                               MEDIUM
 GLOBAL| MPI I/O enabled                                                       T
 GLOBAL| Total number of message passing processes                           512
 GLOBAL| Number of threads for this process                                   12
 GLOBAL| This output is from process                                           0
 GLOBAL| OpenMP stack size per thread (OMP_STACKSIZE)                    default
 GLOBAL| CPU model name             Intel(R) Xeon(R) Platinum 8174 CPU @ 3.10GHz

 MEMORY| system memory details [Kb]
 MEMORY|                        rank 0           min           max       average
 MEMORY| MemTotal             98436664      98432004      98436900      98436631
 MEMORY| MemFree              84875836      84513584      86258376      85771747
 MEMORY| Buffers                     0             0             0             0
 MEMORY| Cached                2387916       2327632       2577848       2361867
 MEMORY| Slab                  1228652        996676       1266476       1110129
 MEMORY| SReclaimable           265048        221136        281496        253318
 MEMORY| MemLikelyFree        87528800      87285364      88819416      88386933


 *** Fundamental physical constants (SI units) ***

 *** Literature: B. J. Mohr and B. N. Taylor,
 ***             CODATA recommended values of the fundamental physical
 ***             constants: 2006, Web Version 5.1
 ***             http://physics.nist.gov/constants

 Speed of light in vacuum [m/s]                             2.99792458000000E+08
 Magnetic constant or permeability of vacuum [N/A**2]       1.25663706143592E-06
 Electric constant or permittivity of vacuum [F/m]          8.85418781762039E-12
 Planck constant (h) [J*s]                                  6.62606896000000E-34
 Planck constant (h-bar) [J*s]                              1.05457162825177E-34
 Elementary charge [C]                                      1.60217648700000E-19
 Electron mass [kg]                                         9.10938215000000E-31
 Electron g factor [ ]                                     -2.00231930436220E+00
 Proton mass [kg]                                           1.67262163700000E-27
 Fine-structure constant                                    7.29735253760000E-03
 Rydberg constant [1/m]                                     1.09737315685270E+07
 Avogadro constant [1/mol]                                  6.02214179000000E+23
 Boltzmann constant [J/K]                                   1.38065040000000E-23
 Atomic mass unit [kg]                                      1.66053878200000E-27
 Bohr radius [m]                                            5.29177208590000E-11

 *** Conversion factors ***

 [u] -> [a.u.]                                              1.82288848426455E+03
 [Angstrom] -> [Bohr] = [a.u.]                              1.88972613288564E+00
 [a.u.] = [Bohr] -> [Angstrom]                              5.29177208590000E-01
 [a.u.] -> [s]                                              2.41888432650478E-17
 [a.u.] -> [fs]                                             2.41888432650478E-02
 [a.u.] -> [J]                                              4.35974393937059E-18
 [a.u.] -> [N]                                              8.23872205491840E-08
 [a.u.] -> [K]                                              3.15774647902944E+05
 [a.u.] -> [kJ/mol]                                         2.62549961709828E+03
 [a.u.] -> [kcal/mol]                                       6.27509468713739E+02
 [a.u.] -> [Pa]                                             2.94210107994716E+13
 [a.u.] -> [bar]                                            2.94210107994716E+08
 [a.u.] -> [atm]                                            2.90362800883016E+08
 [a.u.] -> [eV]                                             2.72113838565563E+01
 [a.u.] -> [Hz]                                             6.57968392072181E+15
 [a.u.] -> [1/cm] (wave numbers)                            2.19474631370540E+05
 [a.u./Bohr**2] -> [1/cm]                                   5.14048714338585E+03
 

 CELL_TOP| Volume [angstrom^3]:                                     27000.000000
 CELL_TOP| Vector a [angstrom    30.000     0.000     0.000   |a| =    30.000000
 CELL_TOP| Vector b [angstrom     0.000    30.000     0.000   |b| =    30.000000
 CELL_TOP| Vector c [angstrom     0.000     0.000    30.000   |c| =    30.000000
 CELL_TOP| Angle (b,c), alpha [degree]:                                90.000000
 CELL_TOP| Angle (a,c), beta  [degree]:                                90.000000
 CELL_TOP| Angle (a,b), gamma [degree]:                                90.000000
 CELL_TOP| Numerically orthorhombic:                                         YES
 CELL_TOP| Periodicity                                                      NONE

 GENERATE|  Preliminary Number of Bonds generated:                             0
 GENERATE|  Achieved consistency in connectivity generation.

 CELL| Volume [angstrom^3]:                                         27000.000000
 CELL| Vector a [angstrom]:      30.000     0.000     0.000   |a| =    30.000000
 CELL| Vector b [angstrom]:       0.000    30.000     0.000   |b| =    30.000000
 CELL| Vector c [angstrom]:       0.000     0.000    30.000   |c| =    30.000000
 CELL| Angle (b,c), alpha [degree]:                                    90.000000
 CELL| Angle (a,c), beta  [degree]:                                    90.000000
 CELL| Angle (a,b), gamma [degree]:                                    90.000000
 CELL| Numerically orthorhombic:                                             YES
 CELL| Periodicity                                                          NONE

 CELL_REF| Volume [angstrom^3]:                                     27000.000000
 CELL_REF| Vector a [angstrom    30.000     0.000     0.000   |a| =    30.000000
 CELL_REF| Vector b [angstrom     0.000    30.000     0.000   |b| =    30.000000
 CELL_REF| Vector c [angstrom     0.000     0.000    30.000   |c| =    30.000000
 CELL_REF| Angle (b,c), alpha [degree]:                                90.000000
 CELL_REF| Angle (a,c), beta  [degree]:                                90.000000
 CELL_REF| Angle (a,b), gamma [degree]:                                90.000000
 CELL_REF| Numerically orthorhombic:                                         YES
 CELL_REF| Periodicity                                                      NONE

 *******************************************************************************
 *******************************************************************************
 **                                                                           **
 **     #####                         ##              ##                      **
 **    ##   ##            ##          ##              ##                      **
 **   ##     ##                       ##            ######                    **
 **   ##     ##  ##   ##  ##   #####  ##  ##   ####   ##    #####    #####    **
 **   ##     ##  ##   ##  ##  ##      ## ##   ##      ##   ##   ##  ##   ##   **
 **   ##  ## ##  ##   ##  ##  ##      ####     ###    ##   ######   ######    **
 **    ##  ###   ##   ##  ##  ##      ## ##      ##   ##   ##       ##        **
 **     #######   #####   ##   #####  ##  ##  ####    ##    #####   ##        **
 **           ##                                                    ##        **
 **                                                                           **
 **                                                ... make the atoms dance   **
 **                                                                           **
 **            Copyright (C) by CP2K developers group (2000-2025)             **
 **                      J. Chem. Phys. 152, 194103 (2020)                    **
 **                                                                           **
 *******************************************************************************

 DFT| Spin restricted Kohn-Sham (RKS) calculation                            RKS
 DFT| Multiplicity                                                             1
 DFT| Number of spin states                                                    1
 DFT| Charge                                                                   0
 DFT| Self-interaction correction (SIC)                                       NO
 DFT| Cutoffs: density                                              1.000000E-10
 DFT|          gradient                                             1.000000E-10
 DFT|          tau                                                  1.000000E-10
 DFT|          cutoff_smoothing_range                               0.000000E+00
 DFT| XC density smoothing                                                  NONE
 DFT| XC derivatives                                                          PW

 FUNCTIONAL| PBE:
 FUNCTIONAL| J.P.Perdew, K.Burke, M.Ernzerhof, Phys. Rev. Letter, vol. 77, n 18,
 FUNCTIONAL|  pp. 3865-3868, (1996)sx=0.750sc=1.000{spin unpolarized}           


 QS| Method:                                                                GAPW
 QS| Density plane wave grid type                        NON-SPHERICAL FULLSPACE
 QS| Number of grid levels:                                                    4
 QS| Density cutoff [a.u.]:                                                250.0
 QS| Multi grid cutoff [a.u.]: 1) grid level                               250.0
 QS|                           2) grid level                                83.3
 QS|                           3) grid level                                27.8
 QS|                           4) grid level                                 9.3
 QS| Grid level progression factor:                                          3.0
 QS| Relative density cutoff [a.u.]:                                        50.0
 QS| Interaction thresholds: eps_pgf_orb:                                1.0E-12
 QS|                         eps_filter_matrix:                          0.0E+00
 QS|                         eps_core_charge:                            1.0E-14
 QS|                         eps_rho_gspace:                             1.0E-12
 QS|                         eps_rho_rspace:                             1.0E-12
 QS|                         eps_gvg_rspace:                             1.0E-06
 QS|                         eps_ppl:                                    1.0E-02
 QS|                         eps_ppnl:                                   1.0E-08
 QS| GAPW|      One center basis from orbital basis primitives
 QS| GAPW|                   eps_fit:                                    1.0E-04
 QS| GAPW|                   eps_iso:                                    1.0E-12
 QS| GAPW|                   eps_svd:                                    1.0E-08
 QS| GAPW|                   eps_cpc:                                    1.0E-12
 QS| GAPW|   atom-r-grid: quadrature:                                     GC_LOG
 QS| GAPW|      atom-s-grid:  max l :                                         10
 QS| GAPW|      max_l_rho0 :                                                   2


 ATOMIC KIND INFORMATION

  1. Atomic kind: H                                     Number of atoms:       7

     Orbital Basis Set                                                   cc-pV5Z

       Number of orbital shell sets:                                           5
       Number of orbital shells:                                              15
       Number of primitive Cartesian functions:                               18
       Number of Cartesian basis functions:                                   70
       Number of spherical basis functions:                                   55
       Norm type:                                                              2

       Normalised Cartesian orbitals:

                        Set   Shell   Orbital            Exponent    Coefficient

                          1       1    1s              402.000000       0.000000
                                                        60.240000       0.000000
                                                        13.730000       0.000000
                                                         3.905000       0.000000
                                                         1.283000       0.859172
                                                         0.465500       0.000000
                                                         0.181100       0.000000
                                                         0.072790       0.000000

                          1       2    2s              402.000000       0.000000
                                                        60.240000       0.000000
                                                        13.730000       0.000000
                                                         3.905000       0.000000
                                                         1.283000       0.000000
                                                         0.465500       0.401652
                                                         0.181100       0.000000
                                                         0.072790       0.000000

                          1       3    3s              402.000000       0.017852
                                                        60.240000       0.033364
                                                        13.730000       0.056940
                                                         3.905000       0.088850
                                                         1.283000       0.122259
                                                         0.465500       0.132938
                                                         0.181100       0.086318
                                                         0.072790       0.017622

                          1       4    4s              402.000000       0.000000
                                                        60.240000       0.000000
                                                        13.730000       0.000000
                                                         3.905000       0.000000
                                                         1.283000       0.000000
                                                         0.465500       0.000000
                                                         0.181100       0.197856
                                                         0.072790       0.000000

                          1       5    5s              402.000000       0.000000
                                                        60.240000       0.000000
                                                        13.730000       0.000000
                                                         3.905000       0.000000
                                                         1.283000       0.000000
                                                         0.465500       0.000000
                                                         0.181100       0.000000
                                                         0.072790       0.099877

                          2       1    1px               4.516000       9.383881
                                                         1.712000       0.000000
                                                         0.649000       0.000000
                                                         0.246000       0.000000
                          2       1    1py               4.516000       9.383881
                                                         1.712000       0.000000
                                                         0.649000       0.000000
                                                         0.246000       0.000000
                          2       1    1pz               4.516000       9.383881
                                                         1.712000       0.000000
                                                         0.649000       0.000000
                                                         0.246000       0.000000

                          2       2    2px               4.516000       0.000000
                                                         1.712000       2.791385
                                                         0.649000       0.000000
                                                         0.246000       0.000000
                          2       2    2py               4.516000       0.000000
                                                         1.712000       2.791385
                                                         0.649000       0.000000
                                                         0.246000       0.000000
                          2       2    2pz               4.516000       0.000000
                                                         1.712000       2.791385
                                                         0.649000       0.000000
                                                         0.246000       0.000000

                          2       3    3px               4.516000       0.000000
                                                         1.712000       0.000000
                                                         0.649000       0.830321
                                                         0.246000       0.000000
                          2       3    3py               4.516000       0.000000
                                                         1.712000       0.000000
                                                         0.649000       0.830321
                                                         0.246000       0.000000
                          2       3    3pz               4.516000       0.000000
                                                         1.712000       0.000000
                                                         0.649000       0.830321
                                                         0.246000       0.000000

                          2       4    4px               4.516000       0.000000
                                                         1.712000       0.000000
                                                         0.649000       0.000000
                                                         0.246000       0.246950
                          2       4    4py               4.516000       0.000000
                                                         1.712000       0.000000
                                                         0.649000       0.000000
                                                         0.246000       0.246950
                          2       4    4pz               4.516000       0.000000
                                                         1.712000       0.000000
                                                         0.649000       0.000000
                                                         0.246000       0.246950

                          3       1    1dx2              2.950000      10.929442
                                                         1.206000       0.000000
                                                         0.493000       0.000000
                          3       1    1dxy              2.950000      18.930349
                                                         1.206000       0.000000
                                                         0.493000       0.000000
                          3       1    1dxz              2.950000      18.930349
                                                         1.206000       0.000000
                                                         0.493000       0.000000
                          3       1    1dy2              2.950000      10.929442
                                                         1.206000       0.000000
                                                         0.493000       0.000000
                          3       1    1dyz              2.950000      18.930349
                                                         1.206000       0.000000
                                                         0.493000       0.000000
                          3       1    1dz2              2.950000      10.929442
                                                         1.206000       0.000000
                                                         0.493000       0.000000

                          3       2    2dx2              2.950000       0.000000
                                                         1.206000       2.284374
                                                         0.493000       0.000000
                          3       2    2dxy              2.950000       0.000000
                                                         1.206000       3.956652
                                                         0.493000       0.000000
                          3       2    2dxz              2.950000       0.000000
                                                         1.206000       3.956652
                                                         0.493000       0.000000
                          3       2    2dy2              2.950000       0.000000
                                                         1.206000       2.284374
                                                         0.493000       0.000000
                          3       2    2dyz              2.950000       0.000000
                                                         1.206000       3.956652
                                                         0.493000       0.000000
                          3       2    2dz2              2.950000       0.000000
                                                         1.206000       2.284374
                                                         0.493000       0.000000

                          3       3    3dx2              2.950000       0.000000
                                                         1.206000       0.000000
                                                         0.493000       0.477410
                          3       3    3dxy              2.950000       0.000000
                                                         1.206000       0.000000
                                                         0.493000       0.826898
                          3       3    3dxz              2.950000       0.000000
                                                         1.206000       0.000000
                                                         0.493000       0.826898
                          3       3    3dy2              2.950000       0.000000
                                                         1.206000       0.000000
                                                         0.493000       0.477410
                          3       3    3dyz              2.950000       0.000000
                                                         1.206000       0.000000
                                                         0.493000       0.826898
                          3       3    3dz2              2.950000       0.000000
                                                         1.206000       0.000000
                                                         0.493000       0.477410

                          4       1    1fx3              2.506000      11.632200
                                                         0.875000       0.000000
                          4       1    1fx2y             2.506000      26.010389
                                                         0.875000       0.000000
                          4       1    1fx2z             2.506000      26.010389
                                                         0.875000       0.000000
                          4       1    1fxy2             2.506000      26.010389
                                                         0.875000       0.000000
                          4       1    1fxyz             2.506000      45.051316
                                                         0.875000       0.000000
                          4       1    1fxz2             2.506000      26.010389
                                                         0.875000       0.000000
                          4       1    1fy3              2.506000      11.632200
                                                         0.875000       0.000000
                          4       1    1fy2z             2.506000      26.010389
                                                         0.875000       0.000000
                          4       1    1fyz2             2.506000      26.010389
                                                         0.875000       0.000000
                          4       1    1fz3              2.506000      11.632200
                                                         0.875000       0.000000

                          4       2    2fx3              2.506000       0.000000
                                                         0.875000       1.090116
                          4       2    2fx2y             2.506000       0.000000
                                                         0.875000       2.437573
                          4       2    2fx2z             2.506000       0.000000
                                                         0.875000       2.437573
                          4       2    2fxy2             2.506000       0.000000
                                                         0.875000       2.437573
                          4       2    2fxyz             2.506000       0.000000
                                                         0.875000       4.222000
                          4       2    2fxz2             2.506000       0.000000
                                                         0.875000       2.437573
                          4       2    2fy3              2.506000       0.000000
                                                         0.875000       1.090116
                          4       2    2fy2z             2.506000       0.000000
                                                         0.875000       2.437573
                          4       2    2fyz2             2.506000       0.000000
                                                         0.875000       2.437573
                          4       2    2fz3              2.506000       0.000000
                                                         0.875000       1.090116

                          5       1    1gx4              2.358000      11.774186
                          5       1    1gx3y             2.358000      31.151567
                          5       1    1gx3z             2.358000      31.151567
                          5       1    1gx2y2            2.358000      40.216500
                          5       1    1gx2yz            2.358000      69.657021
                          5       1    1gx2z2            2.358000      40.216500
                          5       1    1gxy3             2.358000      31.151567
                          5       1    1gxy2z            2.358000      69.657021
                          5       1    1gxyz2            2.358000      69.657021
                          5       1    1gxz3             2.358000      31.151567
                          5       1    1gy4              2.358000      11.774186
                          5       1    1gy3z             2.358000      31.151567
                          5       1    1gy2z2            2.358000      40.216500
                          5       1    1gyz3             2.358000      31.151567
                          5       1    1gz4              2.358000      11.774186

     RI Auxiliary Basis Set                                        cc-pV5Z-RIFIT

       Number of orbital shell sets:                                          21
       Number of orbital shells:                                              21
       Number of primitive Cartesian functions:                               21
       Number of Cartesian basis functions:                                  126
       Number of spherical basis functions:                                   91
       Norm type:                                                              2

       Normalised Cartesian orbitals:

                        Set   Shell   Orbital            Exponent    Coefficient

                          1       1    1s                0.236911       0.242019

                          2       1    1px               0.347892       0.380843
                          2       1    1py               0.347892       0.380843
                          2       1    1pz               0.347892       0.380843

                          3       1    1s                0.506054       0.427620

                          4       1    1fx3              0.572873       0.420326
                          4       1    1fx2y             0.572873       0.939876
                          4       1    1fx2z             0.572873       0.939876
                          4       1    1fxy2             0.572873       0.939876
                          4       1    1fxyz             0.572873       1.627914
                          4       1    1fxz2             0.572873       0.939876
                          4       1    1fy3              0.572873       0.420326
                          4       1    1fy2z             0.572873       0.939876
                          4       1    1fyz2             0.572873       0.939876
                          4       1    1fz3              0.572873       0.420326

                          5       1    1dx2              0.625366       0.723843
                          5       1    1dxy              0.625366       1.253733
                          5       1    1dxz              0.625366       1.253733
                          5       1    1dy2              0.625366       0.723843
                          5       1    1dyz              0.625366       1.253733
                          5       1    1dz2              0.625366       0.723843

                          6       1    1px               0.805545       1.087808
                          6       1    1py               0.805545       1.087808
                          6       1    1pz               0.805545       1.087808

                          7       1    1dx2              0.979237       1.586584
                          7       1    1dxy              0.979237       2.748044
                          7       1    1dxz              0.979237       2.748044
                          7       1    1dy2              0.979237       1.586584
                          7       1    1dyz              0.979237       2.748044
                          7       1    1dz2              0.979237       1.586584

                          8       1    1s                0.994218       0.709613

                          9       1    1fx3              1.198110       2.210915
                          9       1    1fx2y             1.198110       4.943756
                          9       1    1fx2z             1.198110       4.943756
                          9       1    1fxy2             1.198110       4.943756
                          9       1    1fxyz             1.198110       8.562836
                          9       1    1fxz2             1.198110       4.943756
                          9       1    1fy3              1.198110       2.210915
                          9       1    1fy2z             1.198110       4.943756
                          9       1    1fyz2             1.198110       4.943756
                          9       1    1fz3              1.198110       2.210915

                         10       1    1gx4              1.231920       1.974865
                         10       1    1gx3y             1.231920       5.225001
                         10       1    1gx3z             1.231920       5.225001
                         10       1    1gx2y2            1.231920       6.745447
                         10       1    1gx2yz            1.231920      11.683456
                         10       1    1gx2z2            1.231920       6.745447
                         10       1    1gxy3             1.231920       5.225001
                         10       1    1gxy2z            1.231920      11.683456
                         10       1    1gxyz2            1.231920      11.683456
                         10       1    1gxz3             1.231920       5.225001
                         10       1    1gy4              1.231920       1.974865
                         10       1    1gy3z             1.231920       5.225001
                         10       1    1gy2z2            1.231920       6.745447
                         10       1    1gyz3             1.231920       5.225001
                         10       1    1gz4              1.231920       1.974865

                         11       1    1px               1.248660       1.881462
                         11       1    1py               1.248660       1.881462
                         11       1    1pz               1.248660       1.881462

                         12       1    1dx2              1.710630       4.211459
                         12       1    1dxy              1.710630       7.294461
                         12       1    1dxz              1.710630       7.294461
                         12       1    1dy2              1.710630       4.211459
                         12       1    1dyz              1.710630       7.294461
                         12       1    1dz2              1.710630       4.211459

                         13       1    1s                1.775100       1.096042

                         14       1    1px               2.052170       3.501118
                         14       1    1py               2.052170       3.501118
                         14       1    1pz               2.052170       3.501118

                         15       1    1gx4              2.987800      22.576266
                         15       1    1gx3y             2.987800      59.731185
                         15       1    1gx3z             2.987800      59.731185
                         15       1    1gx2y2            2.987800      77.112629
                         15       1    1gx2yz            2.987800     133.562991
                         15       1    1gx2z2            2.987800      77.112629
                         15       1    1gxy3             2.987800      59.731185
                         15       1    1gxy2z            2.987800     133.562991
                         15       1    1gxyz2            2.987800     133.562991
                         15       1    1gxz3             2.987800      59.731185
                         15       1    1gy4              2.987800      22.576266
                         15       1    1gy3z             2.987800      59.731185
                         15       1    1gy2z2            2.987800      77.112629
                         15       1    1gyz3             2.987800      59.731185
                         15       1    1gz4              2.987800      22.576266

                         16       1    1fx3              3.101510      18.792914
                         16       1    1fx2y             3.101510      42.022232
                         16       1    1fx2z             3.101510      42.022232
                         16       1    1fxy2             3.101510      42.022232
                         16       1    1fxyz             3.101510      72.784641
                         16       1    1fxz2             3.101510      42.022232
                         16       1    1fy3              3.101510      18.792914
                         16       1    1fy2z             3.101510      42.022232
                         16       1    1fyz2             3.101510      42.022232
                         16       1    1fz3              3.101510      18.792914

                         17       1    1hx5              3.247390      34.106027
                         17       1    1hx4y             3.247390     102.318080
                         17       1    1hx4z             3.247390     102.318080
                         17       1    1hx3y2            3.247390     156.293448
                         17       1    1hx3yz            3.247390     270.708193
                         17       1    1hx3z2            3.247390     156.293448
                         17       1    1hx2y3            3.247390     156.293448
                         17       1    1hx2y2z           3.247390     349.482775
                         17       1    1hx2yz2           3.247390     349.482775
                         17       1    1hx2z3            3.247390     156.293448
                         17       1    1hxy4             3.247390     102.318080
                         17       1    1hxy3z            3.247390     270.708193
                         17       1    1hxy2z2           3.247390     349.482775
                         17       1    1hxyz3            3.247390     270.708193
                         17       1    1hxz4             3.247390     102.318080
                         17       1    1hy5              3.247390      34.106027
                         17       1    1hy4z             3.247390     102.318080
                         17       1    1hy3z2            3.247390     156.293448
                         17       1    1hy2z3            3.247390     156.293448
                         17       1    1hyz4             3.247390     102.318080
                         17       1    1hz5              3.247390      34.106027

                         18       1    1dx2              3.858160      17.481346
                         18       1    1dxy              3.858160      30.278579
                         18       1    1dxz              3.858160      30.278579
                         18       1    1dy2              3.858160      17.481346
                         18       1    1dyz              3.858160      30.278579
                         18       1    1dz2              3.858160      17.481346

                         19       1    1s                4.922970       2.355486

                         20       1    1px               5.974580      13.314483
                         20       1    1py               5.974580      13.314483
                         20       1    1pz               5.974580      13.314483

                         21       1    1s               23.321500       7.563581

       Atomic covalent radius [Angstrom]:                                  0.320

       Atomic van der Waals radius [Angstrom]:                             1.090

     The atoms of this atomic kind are PAW atoms (GAPW):
       Hard Gaussian function radius:                                      1.200
       Rho0 radius:                                                        1.200
       Maximum GTO radius used for PAW projector construction:            24.566

     GAPW Soft Basis Set                                            cc-pV5Z_soft

       Number of orbital shell sets:                                           5
       Number of orbital shells:                                              15
       Number of primitive Cartesian functions:                               15
       Number of Cartesian basis functions:                                   70
       Number of spherical basis functions:                                   55
       Norm type:                                                              2

       Normalised Cartesian orbitals:

                        Set   Shell   Orbital            Exponent    Coefficient

                          1       1    1s                3.905000       0.000000
                                                         1.283000       0.859172
                                                         0.465500       0.000000
                                                         0.181100       0.000000
                                                         0.072790       0.000000

                          1       2    2s                3.905000       0.000000
                                                         1.283000       0.000000
                                                         0.465500       0.401652
                                                         0.181100       0.000000
                                                         0.072790       0.000000

                          1       3    3s                3.905000       0.088850
                                                         1.283000       0.122259
                                                         0.465500       0.132938
                                                         0.181100       0.086318
                                                         0.072790       0.017622

                          1       4    4s                3.905000       0.000000
                                                         1.283000       0.000000
                                                         0.465500       0.000000
                                                         0.181100       0.197856
                                                         0.072790       0.000000

                          1       5    5s                3.905000       0.000000
                                                         1.283000       0.000000
                                                         0.465500       0.000000
                                                         0.181100       0.000000
                                                         0.072790       0.099877

                          2       1    1px               4.516000       9.383881
                                                         1.712000       0.000000
                                                         0.649000       0.000000
                                                         0.246000       0.000000
                          2       1    1py               4.516000       9.383881
                                                         1.712000       0.000000
                                                         0.649000       0.000000
                                                         0.246000       0.000000
                          2       1    1pz               4.516000       9.383881
                                                         1.712000       0.000000
                                                         0.649000       0.000000
                                                         0.246000       0.000000

                          2       2    2px               4.516000       0.000000
                                                         1.712000       2.791385
                                                         0.649000       0.000000
                                                         0.246000       0.000000
                          2       2    2py               4.516000       0.000000
                                                         1.712000       2.791385
                                                         0.649000       0.000000
                                                         0.246000       0.000000
                          2       2    2pz               4.516000       0.000000
                                                         1.712000       2.791385
                                                         0.649000       0.000000
                                                         0.246000       0.000000

                          2       3    3px               4.516000       0.000000
                                                         1.712000       0.000000
                                                         0.649000       0.830321
                                                         0.246000       0.000000
                          2       3    3py               4.516000       0.000000
                                                         1.712000       0.000000
                                                         0.649000       0.830321
                                                         0.246000       0.000000
                          2       3    3pz               4.516000       0.000000
                                                         1.712000       0.000000
                                                         0.649000       0.830321
                                                         0.246000       0.000000

                          2       4    4px               4.516000       0.000000
                                                         1.712000       0.000000
                                                         0.649000       0.000000
                                                         0.246000       0.246950
                          2       4    4py               4.516000       0.000000
                                                         1.712000       0.000000
                                                         0.649000       0.000000
                                                         0.246000       0.246950
                          2       4    4pz               4.516000       0.000000
                                                         1.712000       0.000000
                                                         0.649000       0.000000
                                                         0.246000       0.246950

                          3       1    1dx2              2.950000      10.929442
                                                         1.206000       0.000000
                                                         0.493000       0.000000
                          3       1    1dxy              2.950000      18.930349
                                                         1.206000       0.000000
                                                         0.493000       0.000000
                          3       1    1dxz              2.950000      18.930349
                                                         1.206000       0.000000
                                                         0.493000       0.000000
                          3       1    1dy2              2.950000      10.929442
                                                         1.206000       0.000000
                                                         0.493000       0.000000
                          3       1    1dyz              2.950000      18.930349
                                                         1.206000       0.000000
                                                         0.493000       0.000000
                          3       1    1dz2              2.950000      10.929442
                                                         1.206000       0.000000
                                                         0.493000       0.000000

                          3       2    2dx2              2.950000       0.000000
                                                         1.206000       2.284374
                                                         0.493000       0.000000
                          3       2    2dxy              2.950000       0.000000
                                                         1.206000       3.956652
                                                         0.493000       0.000000
                          3       2    2dxz              2.950000       0.000000
                                                         1.206000       3.956652
                                                         0.493000       0.000000
                          3       2    2dy2              2.950000       0.000000
                                                         1.206000       2.284374
                                                         0.493000       0.000000
                          3       2    2dyz              2.950000       0.000000
                                                         1.206000       3.956652
                                                         0.493000       0.000000
                          3       2    2dz2              2.950000       0.000000
                                                         1.206000       2.284374
                                                         0.493000       0.000000

                          3       3    3dx2              2.950000       0.000000
                                                         1.206000       0.000000
                                                         0.493000       0.477410
                          3       3    3dxy              2.950000       0.000000
                                                         1.206000       0.000000
                                                         0.493000       0.826898
                          3       3    3dxz              2.950000       0.000000
                                                         1.206000       0.000000
                                                         0.493000       0.826898
                          3       3    3dy2              2.950000       0.000000
                                                         1.206000       0.000000
                                                         0.493000       0.477410
                          3       3    3dyz              2.950000       0.000000
                                                         1.206000       0.000000
                                                         0.493000       0.826898
                          3       3    3dz2              2.950000       0.000000
                                                         1.206000       0.000000
                                                         0.493000       0.477410

                          4       1    1fx3              2.506000      11.632200
                                                         0.875000       0.000000
                          4       1    1fx2y             2.506000      26.010389
                                                         0.875000       0.000000
                          4       1    1fx2z             2.506000      26.010389
                                                         0.875000       0.000000
                          4       1    1fxy2             2.506000      26.010389
                                                         0.875000       0.000000
                          4       1    1fxyz             2.506000      45.051316
                                                         0.875000       0.000000
                          4       1    1fxz2             2.506000      26.010389
                                                         0.875000       0.000000
                          4       1    1fy3              2.506000      11.632200
                                                         0.875000       0.000000
                          4       1    1fy2z             2.506000      26.010389
                                                         0.875000       0.000000
                          4       1    1fyz2             2.506000      26.010389
                                                         0.875000       0.000000
                          4       1    1fz3              2.506000      11.632200
                                                         0.875000       0.000000

                          4       2    2fx3              2.506000       0.000000
                                                         0.875000       1.090116
                          4       2    2fx2y             2.506000       0.000000
                                                         0.875000       2.437573
                          4       2    2fx2z             2.506000       0.000000
                                                         0.875000       2.437573
                          4       2    2fxy2             2.506000       0.000000
                                                         0.875000       2.437573
                          4       2    2fxyz             2.506000       0.000000
                                                         0.875000       4.222000
                          4       2    2fxz2             2.506000       0.000000
                                                         0.875000       2.437573
                          4       2    2fy3              2.506000       0.000000
                                                         0.875000       1.090116
                          4       2    2fy2z             2.506000       0.000000
                                                         0.875000       2.437573
                          4       2    2fyz2             2.506000       0.000000
                                                         0.875000       2.437573
                          4       2    2fz3              2.506000       0.000000
                                                         0.875000       1.090116

                          5       1    1gx4              2.358000      11.774186
                          5       1    1gx3y             2.358000      31.151567
                          5       1    1gx3z             2.358000      31.151567
                          5       1    1gx2y2            2.358000      40.216500
                          5       1    1gx2yz            2.358000      69.657021
                          5       1    1gx2z2            2.358000      40.216500
                          5       1    1gxy3             2.358000      31.151567
                          5       1    1gxy2z            2.358000      69.657021
                          5       1    1gxyz2            2.358000      69.657021
                          5       1    1gxz3             2.358000      31.151567
                          5       1    1gy4              2.358000      11.774186
                          5       1    1gy3z             2.358000      31.151567
                          5       1    1gy2z2            2.358000      40.216500
                          5       1    1gyz3             2.358000      31.151567
                          5       1    1gz4              2.358000      11.774186

     AE Potential information for                                            ALL

       Description:                                       All-electron potential
                                          Krack, Parrinello, PCCP 2, 2105 (2000)

       Gaussian exponent of the core charge distribution:              12.500000
       Electronic configuration (s p d ...):                           1   0   0

  2. Atomic kind: C                                     Number of atoms:       7

     Orbital Basis Set                                                   cc-pV5Z

       Number of orbital shell sets:                                           6
       Number of orbital shells:                                              21
       Number of primitive Cartesian functions:                               32
       Number of Cartesian basis functions:                                  126
       Number of spherical basis functions:                                   91
       Norm type:                                                              2

       Normalised Cartesian orbitals:

                        Set   Shell   Orbital            Exponent    Coefficient

                          1       1    1px             101.800000       0.000000
                                                        24.040000       0.000000
                                                         7.571000       0.000000
                                                         2.732000       0.000000
                                                         1.085000       1.578437
                                                         0.449600       0.000000
                                                         0.187600       0.000000
                                                         0.076060       0.000000
                          1       1    1py             101.800000       0.000000
                                                        24.040000       0.000000
                                                         7.571000       0.000000
                                                         2.732000       0.000000
                                                         1.085000       1.578437
                                                         0.449600       0.000000
                                                         0.187600       0.000000
                                                         0.076060       0.000000
                          1       1    1pz             101.800000       0.000000
                                                        24.040000       0.000000
                                                         7.571000       0.000000
                                                         2.732000       0.000000
                                                         1.085000       1.578437
                                                         0.449600       0.000000
                                                         0.187600       0.000000
                                                         0.076060       0.000000

                          1       2    2px             101.800000       0.000000
                                                        24.040000       0.000000
                                                         7.571000       0.000000
                                                         2.732000       0.000000
                                                         1.085000       0.000000
                                                         0.449600       0.524775
                                                         0.187600       0.000000
                                                         0.076060       0.000000
                          1       2    2py             101.800000       0.000000
                                                        24.040000       0.000000
                                                         7.571000       0.000000
                                                         2.732000       0.000000
                                                         1.085000       0.000000
                                                         0.449600       0.524775
                                                         0.187600       0.000000
                                                         0.076060       0.000000
                          1       2    2pz             101.800000       0.000000
                                                        24.040000       0.000000
                                                         7.571000       0.000000
                                                         2.732000       0.000000
                                                         1.085000       0.000000
                                                         0.449600       0.524775
                                                         0.187600       0.000000
                                                         0.076060       0.000000

                          1       3    3px             101.800000       0.410679
                                                        24.040000       0.529315
                                                         7.571000       0.566912
                                                         2.732000       0.520714
                                                         1.085000       0.381402
                                                         0.449600       0.195188
                                                         0.187600       0.062335
                                                         0.076060       0.007491
                          1       3    3py             101.800000       0.410679
                                                        24.040000       0.529315
                                                         7.571000       0.566912
                                                         2.732000       0.520714
                                                         1.085000       0.381402
                                                         0.449600       0.195188
                                                         0.187600       0.062335
                                                         0.076060       0.007491
                          1       3    3pz             101.800000       0.410679
                                                        24.040000       0.529315
                                                         7.571000       0.566912
                                                         2.732000       0.520714
                                                         1.085000       0.381402
                                                         0.449600       0.195188
                                                         0.187600       0.062335
                                                         0.076060       0.007491

                          1       4    4px             101.800000       0.000000
                                                        24.040000       0.000000
                                                         7.571000       0.000000
                                                         2.732000       0.000000
                                                         1.085000       0.000000
                                                         0.449600       0.000000
                                                         0.187600       0.175987
                                                         0.076060       0.000000
                          1       4    4py             101.800000       0.000000
                                                        24.040000       0.000000
                                                         7.571000       0.000000
                                                         2.732000       0.000000
                                                         1.085000       0.000000
                                                         0.449600       0.000000
                                                         0.187600       0.175987
                                                         0.076060       0.000000
                          1       4    4pz             101.800000       0.000000
                                                        24.040000       0.000000
                                                         7.571000       0.000000
                                                         2.732000       0.000000
                                                         1.085000       0.000000
                                                         0.449600       0.000000
                                                         0.187600       0.175987
                                                         0.076060       0.000000

                          1       5    5px             101.800000       0.000000
                                                        24.040000       0.000000
                                                         7.571000       0.000000
                                                         2.732000       0.000000
                                                         1.085000       0.000000
                                                         0.449600       0.000000
                                                         0.187600       0.000000
                                                         0.076060       0.056936
                          1       5    5py             101.800000       0.000000
                                                        24.040000       0.000000
                                                         7.571000       0.000000
                                                         2.732000       0.000000
                                                         1.085000       0.000000
                                                         0.449600       0.000000
                                                         0.187600       0.000000
                                                         0.076060       0.056936
                          1       5    5pz             101.800000       0.000000
                                                        24.040000       0.000000
                                                         7.571000       0.000000
                                                         2.732000       0.000000
                                                         1.085000       0.000000
                                                         0.449600       0.000000
                                                         0.187600       0.000000
                                                         0.076060       0.056936

                          2       1    1s            96770.000000       0.097759
                                                     14500.000000       0.178933
                                                      3300.000000       0.310310
                                                       935.800000       0.504412
                                                       306.200000       0.775182
                                                       111.300000       1.106343
                                                        43.900000       1.416119
                                                        18.400000       1.521197
                                                         8.054000       1.222561
                                                         3.637000       0.551732
                                                         1.656000       0.080804
                                                         0.633300       0.001180
                                                         0.254500       0.000129
                                                         0.101900       0.000004

                          2       2    2s            96770.000000       0.000000
                                                     14500.000000       0.000000
                                                      3300.000000       0.000000
                                                       935.800000       0.000000
                                                       306.200000       0.000000
                                                       111.300000       0.000000
                                                        43.900000       0.000000
                                                        18.400000       0.000000
                                                         8.054000       0.000000
                                                         3.637000       0.000000
                                                         1.656000       1.040412
                                                         0.633300       0.000000
                                                         0.254500       0.000000
                                                         0.101900       0.000000

                          2       3    3s            96770.000000       0.000000
                                                     14500.000000       0.000000
                                                      3300.000000       0.000000
                                                       935.800000       0.000000
                                                       306.200000       0.000000
                                                       111.300000       0.000000
                                                        43.900000       0.000000
                                                        18.400000       0.000000
                                                         8.054000       0.000000
                                                         3.637000       0.000000
                                                         1.656000       0.000000
                                                         0.633300       0.505961
                                                         0.254500       0.000000
                                                         0.101900       0.000000

                          2       4    4s            96770.000000       0.000000
                                                     14500.000000       0.000000
                                                      3300.000000       0.000000
                                                       935.800000       0.000000
                                                       306.200000       0.000000
                                                       111.300000       0.000000
                                                        43.900000       0.000000
                                                        18.400000       0.000000
                                                         8.054000       0.000000
                                                         3.637000       0.000000
                                                         1.656000       0.000000
                                                         0.633300       0.000000
                                                         0.254500       0.255374
                                                         0.101900       0.000000

                          2       5    5s            96770.000000      -0.019552
                                                     14500.000000      -0.038612
                                                      3300.000000      -0.066096
                                                       935.800000      -0.108166
                                                       306.200000      -0.166263
                                                       111.300000      -0.243268
                                                        43.900000      -0.320591
                                                        18.400000      -0.379911
                                                         8.054000      -0.363992
                                                         3.637000      -0.270602
                                                         1.656000      -0.025640
                                                         0.633300       0.176585
                                                         0.254500       0.142687
                                                         0.101900       0.029320

                          2       6    6s            96770.000000       0.000000
                                                     14500.000000       0.000000
                                                      3300.000000       0.000000
                                                       935.800000       0.000000
                                                       306.200000       0.000000
                                                       111.300000       0.000000
                                                        43.900000       0.000000
                                                        18.400000       0.000000
                                                         8.054000       0.000000
                                                         3.637000       0.000000
                                                         1.656000       0.000000
                                                         0.633300       0.000000
                                                         0.254500       0.000000
                                                         0.101900       0.128541

                          3       1    1dx2              3.134000      12.150179
                                                         1.233000       0.000000
                                                         0.485000       0.000000
                                                         0.191000       0.000000
                          3       1    1dxy              3.134000      21.044728
                                                         1.233000       0.000000
                                                         0.485000       0.000000
                                                         0.191000       0.000000
                          3       1    1dxz              3.134000      21.044728
                                                         1.233000       0.000000
                                                         0.485000       0.000000
                                                         0.191000       0.000000
                          3       1    1dy2              3.134000      12.150179
                                                         1.233000       0.000000
                                                         0.485000       0.000000
                                                         0.191000       0.000000
                          3       1    1dyz              3.134000      21.044728
                                                         1.233000       0.000000
                                                         0.485000       0.000000
                                                         0.191000       0.000000
                          3       1    1dz2              3.134000      12.150179
                                                         1.233000       0.000000
                                                         0.485000       0.000000
                                                         0.191000       0.000000

                          3       2    2dx2              3.134000       0.000000
                                                         1.233000       2.374624
                                                         0.485000       0.000000
                                                         0.191000       0.000000
                          3       2    2dxy              3.134000       0.000000
                                                         1.233000       4.112969
                                                         0.485000       0.000000
                                                         0.191000       0.000000
                          3       2    2dxz              3.134000       0.000000
                                                         1.233000       4.112969
                                                         0.485000       0.000000
                                                         0.191000       0.000000
                          3       2    2dy2              3.134000       0.000000
                                                         1.233000       2.374624
                                                         0.485000       0.000000
                                                         0.191000       0.000000
                          3       2    2dyz              3.134000       0.000000
[...]

 J. P. Perdew, K. Burke, M. Ernzerhof.
 Phys. Rev. Lett. 77, 3865-3868 (1996).
 Generalized gradient approximation made simple.
 https://doi.org/10.1103/PhysRevLett.77.3865


 -------------------------------------------------------------------------------
 -                                                                             -
 -                                T I M I N G                                  -
 -                                                                             -
 -------------------------------------------------------------------------------
 SUBROUTINE                       CALLS  ASD         SELF TIME        TOTAL TIME
                                MAXIMUM       AVERAGE  MAXIMUM  AVERAGE  MAXIMUM
 CP2K                                 1  1.0    0.081    0.156 3456.862 3456.862
 qs_energies                          1  2.0    0.000    0.001 3451.534 3452.264
 mp2_main                             1  3.0    0.000    0.001 2550.959 2551.689
 mp2_gpw_main                         1  4.0    0.000    0.000 2548.193 2548.243
 rpa_ri_compute_en                    1  5.0    0.001    0.002 2486.248 2486.253
 rpa_num_int                          1  6.0    0.002    0.002 2483.496 2483.626
 compute_GW_self_energy             100  7.0    0.012    0.028 1638.264 1646.537
 compute_GW_self_energy_deep        100  8.0 1126.311 1128.478 1635.431 1643.703
 scf_env_do_scf                       1  3.0    0.000    0.000  888.928  888.943
 scf_env_do_scf_inner_loop           83  4.0    0.002    0.006  888.928  888.943
 qs_ks_build_kohn_sham_matrix        84  7.0    0.011    0.012  847.739  847.881
 qs_ks_update_qs_env                 83  5.0    0.001    0.001  846.279  846.420
 rebuild_ks_matrix                   83  6.0    0.000    0.000  846.266  846.407
 start_bse_calculation                1  7.0    0.001    0.002  822.026  822.028
 hfx_ks_matrix                       84  8.0    0.004    0.004  745.299  745.662
 integrate_four_center               84  9.0    5.779    8.157  745.291  745.644
 parallel_gemm_fm                   387  8.4    0.001    0.001  675.331  684.462
 parallel_gemm_fm_gemm              387  9.4    0.001    0.001  675.330  684.461
 cp_fm_gemm                         387 10.4  675.329  684.460  675.329  684.460
 cp_fm_syevd                         89  7.0    0.001    0.001  660.882  661.634
 cp_fm_redistribute_end              89  8.0  330.344  660.967  330.565  660.993
 cp_fm_syevd_base                    89  8.0  329.597  659.413  329.597  659.413
 integrate_four_center_main          84 10.0   12.547  112.797  145.253  592.539
 integrate_four_center_bin        62122 11.0  132.706  591.102  132.706  591.102
 mp_sync                           1877 11.7  470.113  531.304  470.113  531.304
 create_hermitian_form_of_ABBA        1  8.0    0.001    0.002  428.584  428.669
 diagonalize_C                        1  8.0    0.003    0.003  372.976  373.007
 cp_fm_power                          2  7.5    1.363    1.413  346.204  346.329
 calc_screening_functions             1 10.0   92.165   95.701  106.343  109.848
 mp2_ri_gpw_compute_in                1  5.0    0.048    0.061   61.780   61.792
 mp2_ri_gpw_compute_in_loop           1  6.0    0.000    0.000   61.569   61.598
 contract_B_L                         4  7.0    0.151    0.167   49.281   59.122
 mp_cart_create                     683  9.8   39.117   49.041   39.118   49.042
 dbt_pgrid_create_expert             84 10.8    0.000    0.000   39.078   49.003
 mp2_eri_3c_integrate                 1  7.0    0.037    0.065   10.731   48.375
 integrate_set_3c                 26260  8.0    9.860   45.244   10.694   48.319
 mp_sum_d                         22663  6.9   36.555   39.666   36.555   39.666
 prepare_gapw_den                    84  8.0    0.003    0.004   34.974   34.992
 calculate_rho_atom                 420  9.0    5.306   31.631    5.306   31.632
 calculate_vxc_atom                  84  8.0    0.078    2.031   31.249   31.250
 mp_sum_dv                        68122 10.3   28.523   29.547   28.523   29.547
 gaVxcgb_GC                         332  9.0    0.194   29.073    0.194   29.073
 powell_optimize                ******* 11.0   25.007   26.062   25.007   26.062
 qs_scf_new_mos                      83  5.0    0.001    0.002   21.748   21.829
 sum_up_and_integrate                84  8.0    0.001    0.001   20.102   20.643
 integrate_v_rspace                  84  9.0    0.002    0.003   20.096   20.638
 cp_fm_syrk                           2  8.5   20.426   20.507   20.426   20.507
 eigensolver_symm                    84  6.0    0.004    0.005   19.978   19.997
 qs_rho_update_rho_low               84  5.0    0.001    0.001   18.906   18.910
 mp_waitall_1                    195734 12.0   11.753   18.231   11.753   18.231
 calculate_rho_elec                  84  6.0    0.078    0.083   18.138   18.142
 mp_alltoall_d11v                  1560  9.5   16.292   16.959   16.292   16.959
 calc_pair_dist_radii                 1 10.0    4.476    4.619   15.304   15.855
 density_rs2pw                       84  7.0    0.004    0.004   13.212   14.849
 rs_gather_matrices                  84 10.0    0.012    0.052   14.280   14.579
 rpa_num_int_RPA_matrix_operati     100  7.0    0.001    0.003   14.534   14.536
 transfer_rs2pw                     421  8.4    0.008    0.010   12.615   14.276
 grid_integrate_task_list            84 10.0    0.279   14.003    0.279   14.003
 calc_mat_Q                         100  8.0    0.000    0.001   11.926   12.010
 contract_S_to_Q                    100  9.0    0.001    0.001   11.906   11.991
 grid_collocate_task_list            84  7.0    4.190   11.381    4.190   11.381
 qs_energies_init_hamiltonians        1  3.0    0.000    0.000   11.055   11.055
 build_core_hamiltonian_matrix        1  4.0    0.000    0.000   11.025   11.026
 overlap_condnum                      1  5.0    0.000    0.001   10.998   11.023
 dbt_total                            8  8.0    0.000    0.000   10.538   10.538
 create_B                             1  8.0    0.001    0.001   10.392   10.461
 mp_waitany                        8092 11.5    7.766   10.157    7.766   10.157
 transfer_rs2pw_250                 169 10.0    0.295    0.340    5.905   10.040
 dbt_contract                         4  9.0    0.001    0.001    8.867    9.815
 create_A                             1  8.0    0.010    0.014    8.985    9.020
 arnoldi_conjugate_gradient           7  6.0    0.096    0.119    7.813    7.814
 dbt_tas_multiply                     8 11.5    0.000    0.000    7.273    7.274
 dbt_tas_total                        8 12.5    0.011    0.034    7.271    7.271
 transfer_rs2pw_90                   84  9.0    0.079    0.097    2.986    7.141
 pw_poisson_solve                    84  8.0    0.277    0.319    6.910    6.914
 fft_wrap_pw1pw2                   1755  9.9    0.019    0.022    6.339    6.845
 integrate_four_center_load          84 10.0    0.001    0.001    3.735    6.171
 hfx_load_balance                     1 11.0    0.000    0.000    3.735    6.170
 potential_pw2rs                     84 10.0    0.006    0.007    5.534    6.079
 mp_sum_l                          1050  6.4    3.633    6.068    3.633    6.068
 hfx_load_balance_range               1 12.0    0.000    0.000    3.526    5.963
 integrate_four_center_dist_KS       84 10.0    0.173    0.192    5.834    5.838
 dbt_tas_dbm                          8 13.5    0.000    0.000    5.748    5.748
 dbm_multiply                         8 15.5    5.027    5.571    5.027    5.571
 dbt_tas_mm_1N                        6 14.5    0.000    0.000    4.999    5.543
 fft_wrap_pw1pw2_250               1251 11.1    0.258    0.280    4.855    5.382
 mp_isendrecv_dv                 171696 12.0    1.670    5.093    1.670    5.093
 transfer_pw2rs                     421 10.6    0.004    0.006    4.716    4.875
 integrate_four_center_getP          84 10.0    0.225    0.242    4.799    4.835
 fft3d_pb                          1251 12.1    0.888    0.994    4.261    4.766
 ps_wavelet_solve                    84  9.0    3.320    4.107    4.606    4.706
 dbcsr_sym_matrix_vector_mult     14021  7.0    0.223    0.249    4.019    4.589
 mp_alltoall_z22v                  3006 14.0    3.280    3.803    3.280    3.803
 mp_alltoall_d54                     84 10.0    0.926    3.693    0.926    3.693
 integrate_vhg0_rspace               84  8.0    1.097    1.182    3.566    3.596
 dbcsr_desymmetrize_deep            120  7.5    0.038    0.048    3.526    3.582
 create_qs_kind_set                   1  2.0    0.000    0.000    3.443    3.444
 read_qs_kind                         5  3.0    1.850    1.902    3.443    3.444
 dbcsr_add_d                      21093  7.0    0.019    0.024    0.348    3.270
 dbcsr_add_anytype                21093  8.0    0.024    0.294    0.328    3.246
 fm_general_add_bse                   5 10.2    0.000    0.000    3.140    3.236
 mp_alltoall_i22                    408  9.2    3.098    3.156    3.098    3.156
 abc_contract                     26260  9.0    0.834    3.075    0.834    3.075
 create_integ_mat                     4  6.0    0.009    0.018    2.741    3.029
 transfer_rs2pw_30                   84  9.0    0.968    1.119    2.740    3.012
 array2fm                             4  7.0    0.000    0.000    2.491    2.900
 cp_fm_cholesky_decompose           102  9.0    2.751    2.877    2.751    2.877
 cp_fm_cholesky_invert              101  8.0    2.689    2.756    2.689    2.756
 qs_vxc_create                       84  8.0    0.001    0.001    2.620    2.620
 xc_vxc_pw_create                    83  9.0    0.085    0.089    2.619    2.619
 mp_sum_dm                         4624  7.7    2.424    2.601    2.424    2.601
 mp_sendrecv_dv                   85848 10.0    2.494    2.582    2.494    2.582
 compute_Erpa_by_freq_int           100  8.0    0.013    0.018    2.500    2.500
 dbt_copy                            12 10.1    0.001    0.001    1.270    2.360
 dbcsr_rep_row_to_rep_col_vec     14021  8.0    0.078    0.105    1.027    2.203
 gspace_mixing                       82  5.0    0.076    0.081    2.138    2.139
 Vh_1c_gg_integrals                  84  8.0    0.033    2.060    2.077    2.103
 calculate_rho0_atom                420  9.0    1.650    2.023    1.650    2.023
 transfer_pw2rs_30                   84 12.0    0.870    0.969    1.945    2.016
 dbt_tas_estimate_result_nze          4 12.0    0.018    0.026    2.000    2.000
 dbcsr_finalize                   22424 10.1    0.025    0.669    0.214    1.997
 mp_bcast_dv                      14110  9.0    1.002    1.992    1.002    1.992
 xc_pw_derive                       498 11.0    0.002    0.002    1.876    1.989
 dbcsr_col_vec_to_rep_row         14021  8.0    0.102    0.129    1.369    1.896
 broyden_mixing                      82  6.0    1.545    1.680    1.742    1.775
 dbt_reshape                          8 11.6    0.138    0.159    0.630    1.698
 transfer_pw2rs_250                 169 11.0    0.278    0.310    1.399    1.684
 cube_transpose_2                   837 12.8    0.051    0.061    1.032    1.669
 parser_read_line                395549  4.0    0.132    0.146    1.593    1.602
 fft3d_ps                           504 11.5    0.059    0.098    1.438    1.535
 compute_vec_Sigma_x_minus_vxc_       1  4.0    0.000    0.000    1.494    1.494
 mp_waitall_2                        52 15.7    0.392    1.488    0.392    1.488
 dbcsr_complete_redistribute        288  8.4    0.164    0.194    1.412    1.482
 parser_read_line_low               423  5.0    0.117    0.684    1.460    1.476
 copy_dbcsr_to_fm                   118  6.5    0.003    0.003    1.369    1.470
 dbt_communicate_buffer               8 12.6    0.005    0.005    0.396    1.462
 dbcsr_multiply_generic             136  8.1    0.009    0.011    1.288    1.437
 cp_fm_redistribute_start            89  8.0    0.510    1.067    0.719    1.437
 xc_pw_divergence                    83 10.0    0.001    0.001    1.279    1.406
 mp2_main_alloc_hfx                   1  4.0    0.666    1.397    0.666    1.397
 mp_sum_i                            22  9.8    0.732    1.395    0.732    1.395
 restraint_control                    1  2.0    0.000    0.000    0.731    1.394
 broadcast_input_information        423  6.0    0.285    0.317    1.343    1.363
 put_rho0_on_grid                    84  9.0    0.093    0.137    1.334    1.352
 xc_rho_set_and_dset_create          83 10.0    0.037    0.041    1.201    1.324
 dbt_remap                            8 10.0    0.003    0.004    1.284    1.286
 array2fm_info                        4  8.0    1.108    1.260    1.128    1.279
 calculate_dm_sparse                 83  6.0    0.001    0.001    1.192    1.254
 cp_dbcsr_plus_fm_fm_t               83  7.0    0.002    0.002    1.190    1.252
 transfer_rs2pw_10                   84  9.0    0.254    0.286    0.976    1.190
 cube_transpose_4                   585 13.6    0.055    0.064    1.011    1.172
 cube_transpose_1                   918 13.1    0.055    0.093    0.762    1.045
 dbt_nd_mp_comm                       8 11.0    0.000    0.000    0.943    1.026
 dbcsr_merge_all                  21770 10.8    0.036    0.743    0.166    1.013
 mult_B_with_W                        1  8.0    0.000    0.000    0.843    0.966
 array2fm_fill                        4  8.0    0.361    0.473    0.644    0.944
 fm_general_add_bse_4_buf_from_       1 10.0    0.842    0.921    0.842    0.921
 dbcsr_iterator_start            164438  8.7    0.350    0.711    0.387    0.903
 mp_isend_dm3                      4044 11.5    0.264    0.874    0.264    0.874
 qs_init_subsys                       1  2.0    0.031    0.043    0.849    0.849
 cube_transpose_3                   666 12.7    0.065    0.083    0.703    0.815
 transfer_pw2rs_10                   84 12.0    0.250    0.263    0.755    0.794
 hybrid_alltoall_any                392 11.0    0.372    0.442    0.702    0.782
 fm_general_add_bse_1_setup           5 11.2    0.702    0.778    0.702    0.778
 calculate_rho_atom_coeff            84  6.0    0.151    0.285    0.767    0.767
 cp_fm_to_fm_submat_general         112 10.1    0.419    0.762    0.419    0.762
 mp_rank_compare                    504 12.5    0.626    0.757    0.626    0.757
 update_ks_atom                      84  8.0    0.099    0.237    0.613    0.757
 copy_fm_to_dbcsr                   170  8.1    0.001    0.001    0.727    0.754
 fm_general_add_bse_4_buf_from_       1 10.0    0.694    0.746    0.694    0.746
 dbcsr_sym_matrix_vector_mult_l   14021  8.0    0.168    0.589    0.329    0.746
 qs_env_setup                         1  3.0    0.000    0.000    0.705    0.735
 qs_env_rebuild_pw_env                2  3.5    0.000    0.000    0.704    0.734
 pw_env_rebuild                       1  5.0    0.000    0.001    0.704    0.734
 multiply_cannon                    136  9.1    0.019    0.021    0.606    0.729
 fft_wrap_pw1pw2_90                 168 10.5    0.009    0.027    0.634    0.724
 mp_alltoall_d45                     85 10.0    0.412    0.715    0.412    0.715
 cp_fm_symm                          84  7.0    0.662    0.687    0.662    0.687
 make_m2s                           272  9.1    0.006    0.007    0.603    0.684
 transfer_pw2rs_90                   84 12.0    0.064    0.071    0.612    0.681
 multiply_cannon_loop               136 10.1    0.027    0.033    0.557    0.681
 mp_bcast_i_src                    1692  7.0    0.525    0.680    0.525    0.680
 array2fm_buffer_send                 4  8.0    0.592    0.678    0.592    0.678
 dbt_split_blocks_generic            20  8.8    0.256    0.272    0.602    0.658
 mp_wait                            183  9.0    0.283    0.648    0.283    0.648
 cp_fm_create                       421  7.8    0.506    0.637    0.506    0.637
 dbt_tas_replicate                    8 13.5    0.316    0.375    0.609    0.634
 rs_scatter_matrices                 84  7.0    0.002    0.004    0.603    0.626
 make_images                        272 10.1    0.088    0.101    0.540    0.617
 mp_bcast_am_src                    423  7.0    0.451    0.516    0.525    0.606
 cp_fm_uplo_to_full                 103  8.0    0.470    0.597    0.470    0.597
 mp_irecv_dm3                      4044 11.5    0.117    0.580    0.117    0.580
 dbt_tas_reshape                     10 13.8    0.001    0.001    0.546    0.567
 compute_max_radius                   1  6.0    0.548    0.564    0.548    0.564
 dbm_reserve_blocks                  70 14.1    0.509    0.557    0.509    0.557
 mp_alltoall_i11v                   984  9.3    0.548    0.550    0.548    0.550
 dbcsr_copy                       56735  7.5    0.321    0.418    0.446    0.548
 init_scf_run                         1  3.0    0.000    0.000    0.546    0.546
 mp_bcast_dm                       3024  9.0    0.514    0.525    0.514    0.525
 dbt_split_copyback                   4 10.0    0.336    0.367    0.460    0.516
 pw_poisson_rebuild                  84  9.0    0.000    0.000    0.498    0.505
 ps_wavelet_create                    1 10.0    0.000    0.000    0.498    0.504
 RS_z_slice_distribution              1 11.0    0.419    0.494    0.498    0.504
 dbt_tas_reserve_blocks_index        62 13.1    0.007    0.008    0.444    0.492
 fm_general_add_bse_5_comm_buff       5 11.2    0.000    0.000    0.305    0.485
 communicate_buffer                   5 12.2    0.002    0.002    0.305    0.485
 truncate_BSE_matrices                1  8.0    0.001    0.001    0.236    0.481
 ao_to_mo_and_store_B_E_Ex_gw_1       6  7.0    0.152    0.220    0.387    0.480
 ao_to_mo_and_store_B_E_Ex_bse_       6  7.0    0.131    0.230    0.347    0.477
 mp_isend_dv                      15222 12.8    0.284    0.477    0.284    0.477
 multiply_cannon_multrec           2864 11.1    0.343    0.471    0.345    0.472
 make_images_data                   272 11.1    0.005    0.006    0.388    0.460
 fft_wrap_pw1pw2_30                 168 10.5    0.002    0.015    0.449    0.460
 allocate_matrices_gw                 1  7.0    0.004    0.004    0.331    0.460
 cp2k_distribution_to_z_slices       84  9.0    0.155    0.164    0.421    0.452
 mp_sum_iv                          354  9.5    0.290    0.451    0.290    0.451
 dbcsr_iterator_stop             164438  8.7    0.223    0.407    0.252    0.447
 ao_to_mo_and_store_B_mult_gw_1       6  7.0    0.000    0.000    0.330    0.429
 get_vec_sigma_x                      1  8.0    0.001    0.001    0.292    0.426
 yz_to_xz                           252 14.0    0.037    0.057    0.368    0.422
 ao_to_mo_and_store_B_mult_bse_       6  7.0    0.000    0.000    0.316    0.416
 fm_general_add_bse_3_alloc_buf       5 11.2    0.321    0.393    0.321    0.393
 fft_wrap_pw1pw2_10                 168 10.5    0.001    0.009    0.383    0.386
 xc_functional_eval                 747 10.9    0.001    0.003    0.278    0.386
 pbe_lda_eval                       747 11.9    0.278    0.385    0.278    0.385
 dbt_reserve_blocks_index            36 10.8    0.008    0.009    0.333    0.374
 dbcsr_work_create                22250 10.0    0.015    0.235    0.029    0.361
 -------------------------------------------------------------------------------

 The number of warnings for this run is : 2
 
 -------------------------------------------------------------------------------
  **** **** ******  **  PROGRAM ENDED AT                 2025-04-28 02:57:50.361
 ***** ** ***  *** **   PROGRAM RAN ON                              i01r07c06s02
 **    ****   ******    PROGRAM RAN BY                                   di38fab
 ***** **    ** ** **   PROGRAM PROCESS ID                               1991116
  **** **  *******  **  PROGRAM STOPPED IN /hppfs/scratch/04/di38fab/07_MOL_non_
                                           aug/05_MOL_non_aug/05_MOL/aUKBqsEOTmq
                                           69kFe5R_nOg/5k_set_final_qzvp/LEFMUG/
                                           cc-pV5Z/GW+BSE
