 DBCSR| CPU Multiplication driver                                           BLAS (U)
 DBCSR| Multrec recursion limit                                              512 (U)
 DBCSR| Multiplication stack size                                           1000 (D)
 DBCSR| Maximum elements for images                                    UNLIMITED (U)
 DBCSR| Multiplicative factor virtual images                                   1 (U)
 DBCSR| Use multiplication densification                                       T (D)
 DBCSR| Multiplication size stacks                                             3 (U)
 DBCSR| Use memory pool for CPU allocation                                     F (U)
 DBCSR| Number of 3D layers                                               SINGLE (U)
 DBCSR| Use MPI memory allocation                                              F (U)
 DBCSR| Use RMA algorithm                                                      F (U)
 DBCSR| Use Communication thread                                               T (U)
 DBCSR| Communication thread load                                             75 (D)
 DBCSR| MPI: My process id                                                     0
 DBCSR| MPI: Number of processes                                             216
 DBCSR| OMP: Current number of threads                                         4
 DBCSR| OMP: Max number of threads                                             4
 DBCSR| Split modifier for TAS multiplication algorithm                  1.0E+00 (U)


  **** **** ******  **  PROGRAM STARTED AT               2025-03-11 10:18:44.694
 ***** ** ***  *** **   PROGRAM STARTED ON                          i03r06c01s10
 **    ****   ******    PROGRAM STARTED BY                               di38fab
 ***** **    ** ** **   PROGRAM PROCESS ID                               2291324
  **** **  *******  **  PROGRAM STARTED IN /hppfs/scratch/04/di38fab/05_MOL/aUKB
                                           qsEOTmq69kFe5R_nOg/5k_set_final_qzvp/
                                           METURA01/aug-cc-pVDZ

 CP2K| version string:                 CP2K version 2025.1 (Development Version)
 CP2K| source code revision number:                                  git:d2e611a
 CP2K| cp2kflags: omp libint fftw3 libxc parallel scalapack max_contr=4         
 CP2K| is freely available from                            https://www.cp2k.org/
 CP2K| Program compiled at                       Thu 06 Mar 2025 05:09:20 PM CET
 CP2K| Program compiled on                                               login02
 CP2K| Program compiled for                                        Supermuc-foss
 CP2K| Data directory path                  /hppfs/work/pn36zo/di38fab/cp2k/data
 CP2K| Input file name                                                    GW.inp

 GLOBAL| Force Environment number                                              1
 GLOBAL| Basis set file name            /hppfs/scratch/04/di38fab/04_TMD/BASIS_A
 GLOBAL| Potential file name            /hppfs/work/pn36zo/di38fab/cp2k/data/ALL
 GLOBAL| MM Potential file name                                     MM_POTENTIAL
 GLOBAL| Coordinate file name                                      __STD_INPUT__
 GLOBAL| Method name                                                        CP2K
 GLOBAL| Project name                                                       MoS2
 GLOBAL| Run type                                                         ENERGY
 GLOBAL| FFT library                                                       FFTW3
 GLOBAL| Diagonalization library                                       ScaLAPACK
 GLOBAL| DGEMM library                                                      BLAS
 GLOBAL| Orthonormality check for eigenvectors                          DISABLED
 GLOBAL| Matrix multiplication library                                 ScaLAPACK
 GLOBAL| All-to-all communication in single precision                          F
 GLOBAL| FFTs using library dependent lengths                                  F
 GLOBAL| Grid backend                                                       AUTO
 GLOBAL| Global print level                                               MEDIUM
 GLOBAL| MPI I/O enabled                                                       T
 GLOBAL| Total number of message passing processes                           216
 GLOBAL| Number of threads for this process                                    4
 GLOBAL| This output is from process                                           0
 GLOBAL| OpenMP stack size per thread (OMP_STACKSIZE)                    default
 GLOBAL| CPU model name             Intel(R) Xeon(R) Platinum 8174 CPU @ 3.10GHz

 MEMORY| system memory details [Kb]
 MEMORY|                        rank 0           min           max       average
 MEMORY| MemTotal             98436708      98436648      98436900      98436685
 MEMORY| MemFree              84795968      83748436      84795968      84096792
 MEMORY| Buffers                     0             0             0             0
 MEMORY| Cached                2391976       2388984       2443548       2421062
 MEMORY| Slab                  1152492       1102556       1250036       1217391
 MEMORY| SReclaimable           265168        249876        283476        273512
 MEMORY| MemLikelyFree        87453112      86453540      87453112      86791367


 *** Fundamental physical constants (SI units) ***

 *** Literature: B. J. Mohr and B. N. Taylor,
 ***             CODATA recommended values of the fundamental physical
 ***             constants: 2006, Web Version 5.1
 ***             http://physics.nist.gov/constants

 Speed of light in vacuum [m/s]                             2.99792458000000E+08
 Magnetic constant or permeability of vacuum [N/A**2]       1.25663706143592E-06
 Electric constant or permittivity of vacuum [F/m]          8.85418781762039E-12
 Planck constant (h) [J*s]                                  6.62606896000000E-34
 Planck constant (h-bar) [J*s]                              1.05457162825177E-34
 Elementary charge [C]                                      1.60217648700000E-19
 Electron mass [kg]                                         9.10938215000000E-31
 Electron g factor [ ]                                     -2.00231930436220E+00
 Proton mass [kg]                                           1.67262163700000E-27
 Fine-structure constant                                    7.29735253760000E-03
 Rydberg constant [1/m]                                     1.09737315685270E+07
 Avogadro constant [1/mol]                                  6.02214179000000E+23
 Boltzmann constant [J/K]                                   1.38065040000000E-23
 Atomic mass unit [kg]                                      1.66053878200000E-27
 Bohr radius [m]                                            5.29177208590000E-11

 *** Conversion factors ***

 [u] -> [a.u.]                                              1.82288848426455E+03
 [Angstrom] -> [Bohr] = [a.u.]                              1.88972613288564E+00
 [a.u.] = [Bohr] -> [Angstrom]                              5.29177208590000E-01
 [a.u.] -> [s]                                              2.41888432650478E-17
 [a.u.] -> [fs]                                             2.41888432650478E-02
 [a.u.] -> [J]                                              4.35974393937059E-18
 [a.u.] -> [N]                                              8.23872205491840E-08
 [a.u.] -> [K]                                              3.15774647902944E+05
 [a.u.] -> [kJ/mol]                                         2.62549961709828E+03
 [a.u.] -> [kcal/mol]                                       6.27509468713739E+02
 [a.u.] -> [Pa]                                             2.94210107994716E+13
 [a.u.] -> [bar]                                            2.94210107994716E+08
 [a.u.] -> [atm]                                            2.90362800883016E+08
 [a.u.] -> [eV]                                             2.72113838565563E+01
 [a.u.] -> [Hz]                                             6.57968392072181E+15
 [a.u.] -> [1/cm] (wave numbers)                            2.19474631370540E+05
 [a.u./Bohr**2] -> [1/cm]                                   5.14048714338585E+03
 

 CELL_TOP| Volume [angstrom^3]:                                     27000.000000
 CELL_TOP| Vector a [angstrom    30.000     0.000     0.000   |a| =    30.000000
 CELL_TOP| Vector b [angstrom     0.000    30.000     0.000   |b| =    30.000000
 CELL_TOP| Vector c [angstrom     0.000     0.000    30.000   |c| =    30.000000
 CELL_TOP| Angle (b,c), alpha [degree]:                                90.000000
 CELL_TOP| Angle (a,c), beta  [degree]:                                90.000000
 CELL_TOP| Angle (a,b), gamma [degree]:                                90.000000
 CELL_TOP| Numerically orthorhombic:                                         YES
 CELL_TOP| Periodicity                                                      NONE

 GENERATE|  Preliminary Number of Bonds generated:                             0
 GENERATE|  Achieved consistency in connectivity generation.

 CELL| Volume [angstrom^3]:                                         27000.000000
 CELL| Vector a [angstrom]:      30.000     0.000     0.000   |a| =    30.000000
 CELL| Vector b [angstrom]:       0.000    30.000     0.000   |b| =    30.000000
 CELL| Vector c [angstrom]:       0.000     0.000    30.000   |c| =    30.000000
 CELL| Angle (b,c), alpha [degree]:                                    90.000000
 CELL| Angle (a,c), beta  [degree]:                                    90.000000
 CELL| Angle (a,b), gamma [degree]:                                    90.000000
 CELL| Numerically orthorhombic:                                             YES
 CELL| Periodicity                                                          NONE

 CELL_REF| Volume [angstrom^3]:                                     27000.000000
 CELL_REF| Vector a [angstrom    30.000     0.000     0.000   |a| =    30.000000
 CELL_REF| Vector b [angstrom     0.000    30.000     0.000   |b| =    30.000000
 CELL_REF| Vector c [angstrom     0.000     0.000    30.000   |c| =    30.000000
 CELL_REF| Angle (b,c), alpha [degree]:                                90.000000
 CELL_REF| Angle (a,c), beta  [degree]:                                90.000000
 CELL_REF| Angle (a,b), gamma [degree]:                                90.000000
 CELL_REF| Numerically orthorhombic:                                         YES
 CELL_REF| Periodicity                                                      NONE

 *******************************************************************************
 *******************************************************************************
 **                                                                           **
 **     #####                         ##              ##                      **
 **    ##   ##            ##          ##              ##                      **
 **   ##     ##                       ##            ######                    **
 **   ##     ##  ##   ##  ##   #####  ##  ##   ####   ##    #####    #####    **
 **   ##     ##  ##   ##  ##  ##      ## ##   ##      ##   ##   ##  ##   ##   **
 **   ##  ## ##  ##   ##  ##  ##      ####     ###    ##   ######   ######    **
 **    ##  ###   ##   ##  ##  ##      ## ##      ##   ##   ##       ##        **
 **     #######   #####   ##   #####  ##  ##  ####    ##    #####   ##        **
 **           ##                                                    ##        **
 **                                                                           **
 **                                                ... make the atoms dance   **
 **                                                                           **
 **            Copyright (C) by CP2K developers group (2000-2025)             **
 **                      J. Chem. Phys. 152, 194103 (2020)                    **
 **                                                                           **
 *******************************************************************************

 DFT| Spin restricted Kohn-Sham (RKS) calculation                            RKS
 DFT| Multiplicity                                                             1
 DFT| Number of spin states                                                    1
 DFT| Charge                                                                   0
 DFT| Self-interaction correction (SIC)                                       NO
 DFT| Cutoffs: density                                              1.000000E-10
 DFT|          gradient                                             1.000000E-10
 DFT|          tau                                                  1.000000E-10
 DFT|          cutoff_smoothing_range                               0.000000E+00
 DFT| XC density smoothing                                                  NONE
 DFT| XC derivatives                                                          PW

 FUNCTIONAL| PBE:
 FUNCTIONAL| J.P.Perdew, K.Burke, M.Ernzerhof, Phys. Rev. Letter, vol. 77, n 18,
 FUNCTIONAL|  pp. 3865-3868, (1996)sx=0.750sc=1.000{spin unpolarized}           


 QS| Method:                                                                GAPW
 QS| Density plane wave grid type                        NON-SPHERICAL FULLSPACE
 QS| Number of grid levels:                                                    4
 QS| Density cutoff [a.u.]:                                                250.0
 QS| Multi grid cutoff [a.u.]: 1) grid level                               250.0
 QS|                           2) grid level                                83.3
 QS|                           3) grid level                                27.8
 QS|                           4) grid level                                 9.3
 QS| Grid level progression factor:                                          3.0
 QS| Relative density cutoff [a.u.]:                                        50.0
 QS| Interaction thresholds: eps_pgf_orb:                                1.0E-12
 QS|                         eps_filter_matrix:                          0.0E+00
 QS|                         eps_core_charge:                            1.0E-14
 QS|                         eps_rho_gspace:                             1.0E-12
 QS|                         eps_rho_rspace:                             1.0E-12
 QS|                         eps_gvg_rspace:                             1.0E-06
 QS|                         eps_ppl:                                    1.0E-02
 QS|                         eps_ppnl:                                   1.0E-08
 QS| GAPW|      One center basis from orbital basis primitives
 QS| GAPW|                   eps_fit:                                    1.0E-04
 QS| GAPW|                   eps_iso:                                    1.0E-12
 QS| GAPW|                   eps_svd:                                    1.0E-08
 QS| GAPW|                   eps_cpc:                                    1.0E-12
 QS| GAPW|   atom-r-grid: quadrature:                                     GC_LOG
 QS| GAPW|      atom-s-grid:  max l :                                          4
 QS| GAPW|      max_l_rho0 :                                                   2


 ATOMIC KIND INFORMATION

  1. Atomic kind: O                                     Number of atoms:       2

     Orbital Basis Set                                               aug-cc-pVDZ

       Number of orbital shell sets:                                           6
       Number of orbital shells:                                               9
       Number of primitive Cartesian functions:                               17
       Number of Cartesian basis functions:                                   25
       Number of spherical basis functions:                                   23
       Norm type:                                                              2

       Normalised Cartesian orbitals:

                        Set   Shell   Orbital            Exponent    Coefficient

                          1       1    1px               0.068560       0.050007
                          1       1    1py               0.068560       0.050007
                          1       1    1pz               0.068560       0.050007

                          2       1    1s                0.078960       0.106161

                          3       1    1px              17.700000       2.226162
                                                         3.854000       1.761976
                                                         1.046000       0.767079
                                                         0.275300       0.130905
                          3       1    1py              17.700000       2.226162
                                                         3.854000       1.761976
                                                         1.046000       0.767079
                                                         0.275300       0.130905
                          3       1    1pz              17.700000       2.226162
                                                         3.854000       1.761976
                                                         1.046000       0.767079
                                                         0.275300       0.130905

                          3       2    2px              17.700000       0.000000
                                                         3.854000       0.000000
                                                         1.046000       0.000000
                                                         0.275300       0.284248
                          3       2    2py              17.700000       0.000000
                                                         3.854000       0.000000
                                                         1.046000       0.000000
                                                         0.275300       0.284248
                          3       2    2pz              17.700000       0.000000
                                                         3.854000       0.000000
                                                         1.046000       0.000000
                                                         0.275300       0.284248

                          4       1    1s            11720.000000       0.569986
                                                      1759.000000       1.058881
                                                       400.800000       1.777168
                                                       113.700000       2.600710
                                                        37.030000       3.028357
                                                        13.270000       2.223504
                                                         5.025000       0.648119
                                                         1.013000       0.011124
                                                         0.302300      -0.000751

                          4       2    2s            11720.000000      -0.128448
                                                      1759.000000      -0.244491
                                                       400.800000      -0.400097
                                                       113.700000      -0.638166
                                                        37.030000      -0.758785
                                                        13.270000      -0.819649
                                                         5.025000      -0.279757
                                                         1.013000       0.401106
                                                         0.302300       0.166422

                          4       3    3s            11720.000000       0.000000
                                                      1759.000000       0.000000
                                                       400.800000       0.000000
                                                       113.700000       0.000000
                                                        37.030000       0.000000
                                                        13.270000       0.000000
                                                         5.025000       0.000000
                                                         1.013000       0.000000
                                                         0.302300       0.290562

                          5       1    1dx2              0.332000       0.239002
                          5       1    1dxy              0.332000       0.413963
                          5       1    1dxz              0.332000       0.413963
                          5       1    1dy2              0.332000       0.239002
                          5       1    1dyz              0.332000       0.413963
                          5       1    1dz2              0.332000       0.239002

                          6       1    1dx2              1.185000       2.215218
                          6       1    1dxy              1.185000       3.836871
                          6       1    1dxz              1.185000       3.836871
                          6       1    1dy2              1.185000       2.215218
                          6       1    1dyz              1.185000       3.836871
                          6       1    1dz2              1.185000       2.215218

     RI Auxiliary Basis Set                                    aug-cc-pVDZ-OPTRI

       Number of orbital shell sets:                                          17
       Number of orbital shells:                                              17
       Number of primitive Cartesian functions:                               17
       Number of Cartesian basis functions:                                   88
       Number of spherical basis functions:                                   69
       Norm type:                                                              2

       Normalised Cartesian orbitals:

                        Set   Shell   Orbital            Exponent    Coefficient

                          1       1    1px               0.102282       0.082450
                          1       1    1py               0.102282       0.082450
                          1       1    1pz               0.102282       0.082450

                          2       1    1s                0.117785       0.143294

                          3       1    1px               0.412399       0.471072
                          3       1    1py               0.412399       0.471072
                          3       1    1pz               0.412399       0.471072

                          4       1    1fx3              0.507566       0.320120
                          4       1    1fx2y             0.507566       0.715810
                          4       1    1fx2z             0.507566       0.715810
                          4       1    1fxy2             0.507566       0.715810
                          4       1    1fxyz             0.507566       1.239819
                          4       1    1fxz2             0.507566       0.715810
                          4       1    1fy3              0.507566       0.320120
                          4       1    1fy2z             0.507566       0.715810
                          4       1    1fyz2             0.507566       0.715810
                          4       1    1fz3              0.507566       0.320120

                          5       1    1dx2              0.533937       0.548930
                          5       1    1dxy              0.533937       0.950775
                          5       1    1dxz              0.533937       0.950775
                          5       1    1dy2              0.533937       0.548930
                          5       1    1dyz              0.533937       0.950775
                          5       1    1dz2              0.533937       0.548930

                          6       1    1px               0.892559       1.236620
                          6       1    1py               0.892559       1.236620
                          6       1    1pz               0.892559       1.236620

                          7       1    1s                0.910384       0.664245

                          8       1    1fx3              1.557922       3.991924
                          8       1    1fx2y             1.557922       8.926214
                          8       1    1fx2z             1.557922       8.926214
                          8       1    1fxy2             1.557922       8.926214
                          8       1    1fxyz             1.557922      15.460656
                          8       1    1fxz2             1.557922       8.926214
                          8       1    1fy3              1.557922       3.991924
                          8       1    1fy2z             1.557922       8.926214
                          8       1    1fyz2             1.557922       8.926214
                          8       1    1fz3              1.557922       3.991924

                          9       1    1gx4              1.763142       5.293287
                          9       1    1gx3y             1.763142      14.004722
                          9       1    1gx3z             1.763142      14.004722
                          9       1    1gx2y2            1.763142      18.080018
                          9       1    1gx2yz            1.763142      31.315511
                          9       1    1gx2z2            1.763142      18.080018
                          9       1    1gxy3             1.763142      14.004722
                          9       1    1gxy2z            1.763142      31.315511
                          9       1    1gxyz2            1.763142      31.315511
                          9       1    1gxz3             1.763142      14.004722
                          9       1    1gy4              1.763142       5.293287
                          9       1    1gy3z             1.763142      14.004722
                          9       1    1gy2z2            1.763142      18.080018
                          9       1    1gyz3             1.763142      14.004722
                          9       1    1gz4              1.763142       5.293287

                         10       1    1px               1.931778       3.246285
                         10       1    1py               1.931778       3.246285
                         10       1    1pz               1.931778       3.246285

                         11       1    1s                3.089291       1.660750

                         12       1    1dx2              3.533545      14.989186
                         12       1    1dxy              3.533545      25.962032
                         12       1    1dxz              3.533545      25.962032
                         12       1    1dy2              3.533545      14.989186
                         12       1    1dyz              3.533545      25.962032
                         12       1    1dz2              3.533545      14.989186

                         13       1    1px               4.180971       8.521902
                         13       1    1py               4.180971       8.521902
                         13       1    1pz               4.180971       8.521902

                         14       1    1fx3              4.802730      50.269300
                         14       1    1fx2y             4.802730     112.405572
                         14       1    1fx2z             4.802730     112.405572
                         14       1    1fxy2             4.802730     112.405572
                         14       1    1fxyz             4.802730     194.692161
                         14       1    1fxz2             4.802730     112.405572
                         14       1    1fy3              4.802730      50.269300
                         14       1    1fy2z             4.802730     112.405572
                         14       1    1fyz2             4.802730     112.405572
                         14       1    1fz3              4.802730      50.269300

                         15       1    1dx2              6.710063      46.044844
                         15       1    1dxy              6.710063      79.752009
                         15       1    1dxz              6.710063      79.752009
                         15       1    1dy2              6.710063      46.044844
                         15       1    1dyz              6.710063      79.752009
                         15       1    1dz2              6.710063      46.044844

                         16       1    1s               10.483182       4.152216

                         17       1    1dx2             12.742147     141.443836
                         17       1    1dxy             12.742147     244.987910
                         17       1    1dxz             12.742147     244.987910
                         17       1    1dy2             12.742147     141.443836
                         17       1    1dyz             12.742147     244.987910
                         17       1    1dz2             12.742147     141.443836

       Atomic covalent radius [Angstrom]:                                  0.730

       Atomic van der Waals radius [Angstrom]:                             1.520

     The atoms of this atomic kind are PAW atoms (GAPW):
       Hard Gaussian function radius:                                      1.512
       Rho0 radius:                                                        1.512
       Maximum GTO radius used for PAW projector construction:            24.566

     GAPW Soft Basis Set                                        aug-cc-pVDZ_soft

       Number of orbital shell sets:                                           6
       Number of orbital shells:                                               9
       Number of primitive Cartesian functions:                                9
       Number of Cartesian basis functions:                                   25
       Number of spherical basis functions:                                   23
       Norm type:                                                              2

       Normalised Cartesian orbitals:

                        Set   Shell   Orbital            Exponent    Coefficient

                          1       1    1px               0.068560       0.050007
                          1       1    1py               0.068560       0.050007
                          1       1    1pz               0.068560       0.050007

                          2       1    1s                0.078960       0.106161

                          3       1    1px               3.854000       1.761976
                                                         1.046000       0.767079
                                                         0.275300       0.130905
                          3       1    1py               3.854000       1.761976
                                                         1.046000       0.767079
                                                         0.275300       0.130905
                          3       1    1pz               3.854000       1.761976
                                                         1.046000       0.767079
                                                         0.275300       0.130905

                          3       2    2px               3.854000       0.000000
                                                         1.046000       0.000000
                                                         0.275300       0.284248
                          3       2    2py               3.854000       0.000000
                                                         1.046000       0.000000
                                                         0.275300       0.284248
                          3       2    2pz               3.854000       0.000000
                                                         1.046000       0.000000
                                                         0.275300       0.284248

                          4       1    1s                1.013000       0.011124
                                                         0.302300      -0.000751

                          4       2    2s                1.013000       0.401106
                                                         0.302300       0.166422

                          4       3    3s                1.013000       0.000000
                                                         0.302300       0.290562

                          5       1    1dx2              0.332000       0.239002
                          5       1    1dxy              0.332000       0.413963
                          5       1    1dxz              0.332000       0.413963
                          5       1    1dy2              0.332000       0.239002
                          5       1    1dyz              0.332000       0.413963
                          5       1    1dz2              0.332000       0.239002

                          6       1    1dx2              1.185000       2.215218
                          6       1    1dxy              1.185000       3.836871
                          6       1    1dxz              1.185000       3.836871
                          6       1    1dy2              1.185000       2.215218
                          6       1    1dyz              1.185000       3.836871
                          6       1    1dz2              1.185000       2.215218

     AE Potential information for                                            ALL

       Description:                                       All-electron potential
                                          Krack, Parrinello, PCCP 2, 2105 (2000)

       Gaussian exponent of the core charge distribution:               8.154466
       Electronic configuration (s p d ...):                           4   4   0

  2. Atomic kind: H                                     Number of atoms:       6

     Orbital Basis Set                                               aug-cc-pVDZ

       Number of orbital shell sets:                                           4
       Number of orbital shells:                                               5
       Number of primitive Cartesian functions:                                7
       Number of Cartesian basis functions:                                    9
       Number of spherical basis functions:                                    9
       Norm type:                                                              2

       Normalised Cartesian orbitals:

                        Set   Shell   Orbital            Exponent    Coefficient

                          1       1    1s                0.029740       0.051041

                          2       1    1s               13.010000       0.096107
                                                         1.962000       0.163020
                                                         0.444600       0.185545
                                                         0.122000       0.073744

                          2       2    2s               13.010000       0.000000
                                                         1.962000       0.000000
                                                         0.444600       0.000000
                                                         0.122000       0.147123

                          3       1    1px               0.141000       0.123158
                          3       1    1py               0.141000       0.123158
                          3       1    1pz               0.141000       0.123158

                          4       1    1px               0.727000       0.956881
                          4       1    1py               0.727000       0.956881
                          4       1    1pz               0.727000       0.956881

     RI Auxiliary Basis Set                                    aug-cc-pVDZ-OPTRI

       Number of orbital shell sets:                                           8
       Number of orbital shells:                                               8
       Number of primitive Cartesian functions:                                8
       Number of Cartesian basis functions:                                   24
       Number of spherical basis functions:                                   22
       Norm type:                                                              2

       Normalised Cartesian orbitals:

                        Set   Shell   Orbital            Exponent    Coefficient

                          1       1    1s                0.081394       0.108606

                          2       1    1px               0.273202       0.281543
                          2       1    1py               0.273202       0.281543
                          2       1    1pz               0.273202       0.281543

                          3       1    1s                0.286540       0.279125

                          4       1    1dx2              0.757634       1.012660
                          4       1    1dxy              0.757634       1.753978
                          4       1    1dxz              0.757634       1.753978
                          4       1    1dy2              0.757634       1.012660
                          4       1    1dyz              0.757634       1.753978
                          4       1    1dz2              0.757634       1.012660

                          5       1    1px               1.251075       1.886011
                          5       1    1py               1.251075       1.886011
                          5       1    1pz               1.251075       1.886011

                          6       1    1s                1.320036       0.877707

                          7       1    1dx2              2.604730       8.790108
                          7       1    1dxy              2.604730      15.224913
                          7       1    1dxz              2.604730      15.224913
                          7       1    1dy2              2.604730       8.790108
                          7       1    1dyz              2.604730      15.224913
                          7       1    1dz2              2.604730       8.790108

                          8       1    1px               2.667161       4.858494
                          8       1    1py               2.667161       4.858494
                          8       1    1pz               2.667161       4.858494

       Atomic covalent radius [Angstrom]:                                  0.320

       Atomic van der Waals radius [Angstrom]:                             1.090

     The atoms of this atomic kind are PAW atoms (GAPW):
       Hard Gaussian function radius:                                      1.200
       Rho0 radius:                                                        1.200
       Maximum GTO radius used for PAW projector construction:            24.566

     GAPW Soft Basis Set                                        aug-cc-pVDZ_soft

       Number of orbital shell sets:                                           4
       Number of orbital shells:                                               5
       Number of primitive Cartesian functions:                                6
       Number of Cartesian basis functions:                                    9
       Number of spherical basis functions:                                    9
       Norm type:                                                              2

       Normalised Cartesian orbitals:

                        Set   Shell   Orbital            Exponent    Coefficient

                          1       1    1s                0.029740       0.051041

                          2       1    1s                1.962000       0.163020
                                                         0.444600       0.185545
                                                         0.122000       0.073744

                          2       2    2s                1.962000       0.000000
                                                         0.444600       0.000000
                                                         0.122000       0.147123

                          3       1    1px               0.141000       0.123158
                          3       1    1py               0.141000       0.123158
                          3       1    1pz               0.141000       0.123158

                          4       1    1px               0.727000       0.956881
                          4       1    1py               0.727000       0.956881
                          4       1    1pz               0.727000       0.956881

     AE Potential information for                                            ALL

       Description:                                       All-electron potential
                                          Krack, Parrinello, PCCP 2, 2105 (2000)

       Gaussian exponent of the core charge distribution:              12.500000
       Electronic configuration (s p d ...):                           1   0   0

  3. Atomic kind: N                                     Number of atoms:       2

     Orbital Basis Set                                               aug-cc-pVDZ

       Number of orbital shell sets:                                           6
       Number of orbital shells:                                               9
       Number of primitive Cartesian functions:                               17
       Number of Cartesian basis functions:                                   25
       Number of spherical basis functions:                                   23
       Norm type:                                                              2

       Normalised Cartesian orbitals:

                        Set   Shell   Orbital            Exponent    Coefficient

                          1       1    1px               0.056110       0.038926
                          1       1    1py               0.056110       0.038926
                          1       1    1pz               0.056110       0.038926

                          2       1    1s                0.061240       0.087738

                          3       1    1px              13.550000       1.479258
                                                         2.917000       1.180072
                                                         0.797300       0.548036
                                                         0.218500       0.098423
                          3       1    1py              13.550000       1.479258
                                                         2.917000       1.180072
                                                         0.797300       0.548036
                                                         0.218500       0.098423
                          3       1    1pz              13.550000       1.479258
                                                         2.917000       1.180072
                                                         0.797300       0.548036
                                                         0.218500       0.098423

                          3       2    2px              13.550000       0.000000
                                                         2.917000       0.000000
                                                         0.797300       0.000000
                                                         0.218500       0.212939
                          3       2    2py              13.550000       0.000000
                                                         2.917000       0.000000
                                                         0.797300       0.000000
                                                         0.218500       0.212939
                          3       2    2pz              13.550000       0.000000
                                                         2.917000       0.000000
                                                         0.797300       0.000000
                                                         0.218500       0.212939

                          4       1    1s             9046.000000       0.462754
                                                      1357.000000       0.858723
                                                       309.300000       1.440591
                                                        87.730000       2.108533
                                                        28.560000       2.454153
                                                        10.210000       1.825915
                                                         3.838000       0.543758
                                                         0.746600       0.008838
                                                         0.224800      -0.000666

                          4       2    2s             9046.000000      -0.101145
                                                      1357.000000      -0.192492
                                                       309.300000      -0.314968
                                                        87.730000      -0.501437
                                                        28.560000      -0.593976
                                                        10.210000      -0.643503
                                                         3.838000      -0.238093
                                                         0.746600       0.314268
                                                         0.224800       0.134678

                          4       3    3s             9046.000000       0.000000
                                                      1357.000000       0.000000
                                                       309.300000       0.000000
                                                        87.730000       0.000000
                                                        28.560000       0.000000
                                                        10.210000       0.000000
                                                         3.838000       0.000000
                                                         0.746600       0.000000
                                                         0.224800       0.232679

                          5       1    1dx2              0.230000       0.125728
                          5       1    1dxy              0.230000       0.217768
                          5       1    1dxz              0.230000       0.217768
                          5       1    1dy2              0.230000       0.125728
                          5       1    1dyz              0.230000       0.217768
                          5       1    1dz2              0.230000       0.125728

                          6       1    1dx2              0.817000       1.155575
                          6       1    1dxy              0.817000       2.001514
                          6       1    1dxz              0.817000       2.001514
                          6       1    1dy2              0.817000       1.155575
                          6       1    1dyz              0.817000       2.001514
                          6       1    1dz2              0.817000       1.155575

     RI Auxiliary Basis Set                                    aug-cc-pVDZ-OPTRI

       Number of orbital shell sets:                                          17
       Number of orbital shells:                                              17
       Number of primitive Cartesian functions:                               17
       Number of Cartesian basis functions:                                   88
       Number of spherical basis functions:                                   69
       Norm type:                                                              2

       Normalised Cartesian orbitals:

                        Set   Shell   Orbital            Exponent    Coefficient

                          1       1    1s                0.091449       0.118521

                          2       1    1px               0.115183       0.095648
                          2       1    1py               0.115183       0.095648
                          2       1    1pz               0.115183       0.095648

                          3       1    1px               0.322548       0.346484
                          3       1    1py               0.322548       0.346484
                          3       1    1pz               0.322548       0.346484

                          4       1    1dx2              0.422464       0.364369
                          4       1    1dxy              0.422464       0.631106
                          4       1    1dxz              0.422464       0.631106
                          4       1    1dy2              0.422464       0.364369
                          4       1    1dyz              0.422464       0.631106
                          4       1    1dz2              0.422464       0.364369

                          5       1    1fx3              0.510986       0.324994
                          5       1    1fx2y             0.510986       0.726708
                          5       1    1fx2z             0.510986       0.726708
                          5       1    1fxy2             0.510986       0.726708
                          5       1    1fxyz             0.510986       1.258694
                          5       1    1fxz2             0.510986       0.726708
                          5       1    1fy3              0.510986       0.324994
                          5       1    1fy2z             0.510986       0.726708
                          5       1    1fyz2             0.510986       0.726708
                          5       1    1fz3              0.510986       0.324994

                          6       1    1px               0.679523       0.879418
                          6       1    1py               0.679523       0.879418
                          6       1    1pz               0.679523       0.879418

                          7       1    1s                0.726628       0.560911

                          8       1    1fx3              1.397681       3.126962
                          8       1    1fx2y             1.397681       6.992099
                          8       1    1fx2z             1.397681       6.992099
                          8       1    1fxy2             1.397681       6.992099
                          8       1    1fxyz             1.397681      12.110671
                          8       1    1fxz2             1.397681       6.992099
                          8       1    1fy3              1.397681       3.126962
                          8       1    1fy2z             1.397681       6.992099
                          8       1    1fyz2             1.397681       6.992099
                          8       1    1fz3              1.397681       3.126962

                          9       1    1px               1.431573       2.232066
                          9       1    1py               1.431573       2.232066
                          9       1    1pz               1.431573       2.232066

                         10       1    1gx4              1.484177       3.296257
                         10       1    1gx3y             1.484177       8.721077
                         10       1    1gx3z             1.484177       8.721077
                         10       1    1gx2y2            1.484177      11.258862
                         10       1    1gx2yz            1.484177      19.500921
                         10       1    1gx2z2            1.484177      11.258862
                         10       1    1gxy3             1.484177       8.721077
                         10       1    1gxy2z            1.484177      19.500921
                         10       1    1gxyz2            1.484177      19.500921
                         10       1    1gxz3             1.484177       8.721077
                         10       1    1gy4              1.484177       3.296257
                         10       1    1gy3z             1.484177       8.721077
                         10       1    1gy2z2            1.484177      11.258862
                         10       1    1gyz3             1.484177       8.721077
                         10       1    1gz4              1.484177       3.296257

                         11       1    1dx2              1.846235       4.812954
                         11       1    1dxy              1.846235       8.336280
                         11       1    1dxz              1.846235       8.336280
                         11       1    1dy2              1.846235       4.812954
                         11       1    1dyz              1.846235       8.336280
                         11       1    1dz2              1.846235       4.812954

                         12       1    1s                2.651372       1.480857

                         13       1    1px               3.015942       5.665247
                         13       1    1py               3.015942       5.665247
                         13       1    1pz               3.015942       5.665247

                         14       1    1dx2              3.588066      15.396259
                         14       1    1dxy              3.588066      26.667102
                         14       1    1dxz              3.588066      26.667102
                         14       1    1dy2              3.588066      15.396259
                         14       1    1dyz              3.588066      26.667102
                         14       1    1dz2              3.588066      15.396259

                         15       1    1fx3              4.092837      35.075951
                         15       1    1fx2y             4.092837      78.432212
                         15       1    1fx2z             4.092837      78.432212
                         15       1    1fxy2             4.092837      78.432212
                         15       1    1fxyz             4.092837     135.848576
                         15       1    1fxz2             4.092837      78.432212
                         15       1    1fy3              4.092837      35.075951
                         15       1    1fy2z             4.092837      78.432212
                         15       1    1fyz2             4.092837      78.432212
                         15       1    1fz3              4.092837      35.075951

                         16       1    1dx2              6.973227      49.251404
                         16       1    1dxy              6.973227      85.305933
                         16       1    1dxz              6.973227      85.305933
                         16       1    1dy2              6.973227      49.251404
                         16       1    1dyz              6.973227      85.305933
                         16       1    1dz2              6.973227      49.251404

                         17       1    1s                9.674522       3.909599

       Atomic covalent radius [Angstrom]:                                  0.750

       Atomic van der Waals radius [Angstrom]:                             1.550

     The atoms of this atomic kind are PAW atoms (GAPW):
       Hard Gaussian function radius:                                      1.512
       Rho0 radius:                                                        1.512
       Maximum GTO radius used for PAW projector construction:            24.566

     GAPW Soft Basis Set                                        aug-cc-pVDZ_soft

       Number of orbital shell sets:                                           6
       Number of orbital shells:                                               9
       Number of primitive Cartesian functions:                               10
       Number of Cartesian basis functions:                                   25
       Number of spherical basis functions:                                   23
       Norm type:                                                              2

       Normalised Cartesian orbitals:

                        Set   Shell   Orbital            Exponent    Coefficient

                          1       1    1px               0.056110       0.038926
                          1       1    1py               0.056110       0.038926
                          1       1    1pz               0.056110       0.038926

                          2       1    1s                0.061240       0.087738

                          3       1    1px               2.917000       1.180072
                                                         0.797300       0.548036
                                                         0.218500       0.098423
                          3       1    1py               2.917000       1.180072
                                                         0.797300       0.548036
                                                         0.218500       0.098423
                          3       1    1pz               2.917000       1.180072
                                                         0.797300       0.548036
                                                         0.218500       0.098423

                          3       2    2px               2.917000       0.000000
                                                         0.797300       0.000000
                                                         0.218500       0.212939
                          3       2    2py               2.917000       0.000000
                                                         0.797300       0.000000
                                                         0.218500       0.212939
                          3       2    2pz               2.917000       0.000000
                                                         0.797300       0.000000
                                                         0.218500       0.212939

                          4       1    1s                3.838000       0.543758
                                                         0.746600       0.008838
                                                         0.224800      -0.000666

                          4       2    2s                3.838000      -0.238093
                                                         0.746600       0.314268
                                                         0.224800       0.134678

                          4       3    3s                3.838000       0.000000
                                                         0.746600       0.000000
                                                         0.224800       0.232679

                          5       1    1dx2              0.230000       0.125728
                          5       1    1dxy              0.230000       0.217768
                          5       1    1dxz              0.230000       0.217768
                          5       1    1dy2              0.230000       0.125728
                          5       1    1dyz              0.230000       0.217768
                          5       1    1dz2              0.230000       0.125728

                          6       1    1dx2              0.817000       1.155575
                          6       1    1dxy              0.817000       2.001514
                          6       1    1dxz              0.817000       2.001514
                          6       1    1dy2              0.817000       1.155575
                          6       1    1dyz              0.817000       2.001514
                          6       1    1dz2              0.817000       1.155575

     AE Potential information for                                            ALL

       Description:                                       All-electron potential
                                          Krack, Parrinello, PCCP 2, 2105 (2000)

       Gaussian exponent of the core charge distribution:               5.979100
       Electronic configuration (s p d ...):                           4   3   0

  4. Atomic kind: C                                     Number of atoms:       5

     Orbital Basis Set                                               aug-cc-pVDZ

       Number of orbital shell sets:                                           6
       Number of orbital shells:                                               9
       Number of primitive Cartesian functions:                               17
       Number of Cartesian basis functions:                                   25
       Number of spherical basis functions:                                   23
       Norm type:                                                              2

       Normalised Cartesian orbitals:

                        Set   Shell   Orbital            Exponent    Coefficient

                          1       1    1px               0.040410       0.025826
                          1       1    1py               0.040410       0.025826
                          1       1    1pz               0.040410       0.025826

                          2       1    1s                0.046900       0.071827

                          3       1    1dx2              0.151000       0.060203
                          3       1    1dxy              0.151000       0.104275
                          3       1    1dxz              0.151000       0.104275
                          3       1    1dy2              0.151000       0.060203
                          3       1    1dyz              0.151000       0.104275
                          3       1    1dz2              0.151000       0.060203

                          4       1    1px               9.439000       0.898722
                                                         2.002000       0.711071
                                                         0.545600       0.339917
                                                         0.151700       0.063270
                          4       1    1py               9.439000       0.898722
                                                         2.002000       0.711071
                                                         0.545600       0.339917
                                                         0.151700       0.063270
                          4       1    1pz               9.439000       0.898722
                                                         2.002000       0.711071
                                                         0.545600       0.339917
                                                         0.151700       0.063270

                          4       2    2px               9.439000       0.000000
                                                         2.002000       0.000000
                                                         0.545600       0.000000
                                                         0.151700       0.134950
                          4       2    2py               9.439000       0.000000
                                                         2.002000       0.000000
                                                         0.545600       0.000000
                                                         0.151700       0.134950
                          4       2    2pz               9.439000       0.000000
                                                         2.002000       0.000000
                                                         0.545600       0.000000
                                                         0.151700       0.134950

                          5       1    1s             6665.000000       0.363803
                                                      1000.000000       0.675392
                                                       228.000000       1.132301
                                                        64.710000       1.654004
                                                        21.060000       1.924978
                                                         7.495000       1.448149
                                                         2.797000       0.439427
                                                         0.521500       0.006650
                                                         0.159600      -0.000574

                          5       2    2s             6665.000000      -0.076756
                                                      1000.000000      -0.146257
                                                       228.000000      -0.239407
                                                        64.710000      -0.379069
                                                        21.060000      -0.448104
                                                         7.495000      -0.484201
                                                         2.797000      -0.196168
                                                         0.521500       0.238162
                                                         0.159600       0.104468

                          5       3    3s             6665.000000       0.000000
                                                      1000.000000       0.000000
                                                       228.000000       0.000000
                                                        64.710000       0.000000
                                                        21.060000       0.000000
                                                         7.495000       0.000000
                                                         2.797000       0.000000
                                                         0.521500       0.000000
                                                         0.159600       0.179964

                          6       1    1dx2              0.550000       0.578155
                          6       1    1dxy              0.550000       1.001394
                          6       1    1dxz              0.550000       1.001394
                          6       1    1dy2              0.550000       0.578155
                          6       1    1dyz              0.550000       1.001394
                          6       1    1dz2              0.550000       0.578155

     RI Auxiliary Basis Set                                    aug-cc-pVDZ-OPTRI

       Number of orbital shell sets:                                          17
       Number of orbital shells:                                              17
       Number of primitive Cartesian functions:                               17
       Number of Cartesian basis functions:                                   88
       Number of spherical basis functions:                                   69
       Norm type:                                                              2

       Normalised Cartesian orbitals:

                        Set   Shell   Orbital            Exponent    Coefficient

                          1       1    1s                0.073601       0.100710

                          2       1    1px               0.095295       0.075471
                          2       1    1py               0.095295       0.075471
                          2       1    1pz               0.095295       0.075471

                          3       1    1px               0.227892       0.224441
                          3       1    1py               0.227892       0.224441
                          3       1    1pz               0.227892       0.224441

                          4       1    1fx3              0.301896       0.099457
                          4       1    1fx2y             0.301896       0.222392
                          4       1    1fx2z             0.301896       0.222392
                          4       1    1fxy2             0.301896       0.222392
                          4       1    1fxyz             0.301896       0.385194
                          4       1    1fxz2             0.301896       0.222392
                          4       1    1fy3              0.301896       0.099457
                          4       1    1fy2z             0.301896       0.222392
                          4       1    1fyz2             0.301896       0.222392
                          4       1    1fz3              0.301896       0.099457

                          5       1    1dx2              0.333056       0.240334
                          5       1    1dxy              0.333056       0.416270
                          5       1    1dxz              0.333056       0.416270
                          5       1    1dy2              0.333056       0.240334
                          5       1    1dyz              0.333056       0.416270
                          5       1    1dz2              0.333056       0.240334

                          6       1    1px               0.481813       0.572187
                          6       1    1py               0.481813       0.572187
                          6       1    1pz               0.481813       0.572187

                          7       1    1s                0.499106       0.423209

                          8       1    1fx3              0.891821       1.137835
                          8       1    1fx2y             0.891821       2.544276
                          8       1    1fx2z             0.891821       2.544276
                          8       1    1fxy2             0.891821       2.544276
                          8       1    1fxyz             0.891821       4.406816
                          8       1    1fxz2             0.891821       2.544276
                          8       1    1fy3              0.891821       1.137835
                          8       1    1fy2z             0.891821       2.544276
                          8       1    1fyz2             0.891821       2.544276
                          8       1    1fz3              0.891821       1.137835

                          9       1    1gx4              0.973489       1.033584
                          9       1    1gx3y             0.973489       2.734606
                          9       1    1gx3z             0.973489       2.734606
                          9       1    1gx2y2            0.973489       3.530362
                          9       1    1gx2yz            0.973489       6.114766
                          9       1    1gx2z2            0.973489       3.530362
                          9       1    1gxy3             0.973489       2.734606
                          9       1    1gxy2z            0.973489       6.114766
                          9       1    1gxyz2            0.973489       6.114766
                          9       1    1gxz3             0.973489       2.734606
                          9       1    1gy4              0.973489       1.033584
                          9       1    1gy3z             0.973489       2.734606
                          9       1    1gy2z2            0.973489       3.530362
                          9       1    1gyz3             0.973489       2.734606
                          9       1    1gz4              0.973489       1.033584

                         10       1    1px               1.018656       1.458729
                         10       1    1py               1.018656       1.458729
                         10       1    1pz               1.018656       1.458729

                         11       1    1dx2              1.381969       2.899222
                         11       1    1dxy              1.381969       5.021600
                         11       1    1dxz              1.381969       5.021600
                         11       1    1dy2              1.381969       2.899222
                         11       1    1dyz              1.381969       5.021600
                         11       1    1dz2              1.381969       2.899222

                         12       1    1s                1.807741       1.111123

                         13       1    1px               2.153659       3.718872
                         13       1    1py               2.153659       3.718872
                         13       1    1pz               2.153659       3.718872

                         14       1    1fx3              2.652750      13.221209
                         14       1    1fx2y             2.652750      29.563522
                         14       1    1fx2z             2.652750      29.563522
                         14       1    1fxy2             2.652750      29.563522
                         14       1    1fxyz             2.652750      51.205523
                         14       1    1fxz2             2.652750      29.563522
                         14       1    1fy3              2.652750      13.221209
                         14       1    1fy2z             2.652750      29.563522
                         14       1    1fyz2             2.652750      29.563522
                         14       1    1fz3              2.652750      13.221209

                         15       1    1dx2              3.347320      13.634199
                         15       1    1dxy              3.347320      23.615125
                         15       1    1dxz              3.347320      23.615125
                         15       1    1dy2              3.347320      13.634199
                         15       1    1dyz              3.347320      23.615125
                         15       1    1dz2              3.347320      13.634199

                         16       1    1s                6.547563       2.917225

                         17       1    1dx2              8.107669      64.117632
                         17       1    1dxy              8.107669     111.054996
                         17       1    1dxz              8.107669     111.054996
                         17       1    1dy2              8.107669      64.117632
                         17       1    1dyz              8.107669     111.054996
                         17       1    1dz2              8.107669      64.117632

       Atomic covalent radius [Angstrom]:                                  0.770

       Atomic van der Waals radius [Angstrom]:                             1.700

     The atoms of this atomic kind are PAW atoms (GAPW):
       Hard Gaussian function radius:                                      1.512
       Rho0 radius:                                                        1.512
       Maximum GTO radius used for PAW projector construction:            24.566

     GAPW Soft Basis Set                                        aug-cc-pVDZ_soft

       Number of orbital shell sets:                                           6
       Number of orbital shells:                                               9
       Number of primitive Cartesian functions:                               10
       Number of Cartesian basis functions:                                   25
       Number of spherical basis functions:                                   23
       Norm type:                                                              2

       Normalised Cartesian orbitals:

                        Set   Shell   Orbital            Exponent    Coefficient

                          1       1    1px               0.040410       0.025826
                          1       1    1py               0.040410       0.025826
                          1       1    1pz               0.040410       0.025826

                          2       1    1s                0.046900       0.071827

                          3       1    1dx2              0.151000       0.060203
                          3       1    1dxy              0.151000       0.104275
                          3       1    1dxz              0.151000       0.104275
                          3       1    1dy2              0.151000       0.060203
                          3       1    1dyz              0.151000       0.104275
                          3       1    1dz2              0.151000       0.060203

                          4       1    1px               2.002000       0.711071
                                                         0.545600       0.339917
                                                         0.151700       0.063270
                          4       1    1py               2.002000       0.711071
                                                         0.545600       0.339917
                                                         0.151700       0.063270
                          4       1    1pz               2.002000       0.711071
                                                         0.545600       0.339917
                                                         0.151700       0.063270

                          4       2    2px               2.002000       0.000000
                                                         0.545600       0.000000
                                                         0.151700       0.134950
                          4       2    2py               2.002000       0.000000
                                                         0.545600       0.000000
                                                         0.151700       0.134950
                          4       2    2pz               2.002000       0.000000
                                                         0.545600       0.000000
                                                         0.151700       0.134950

                          5       1    1s                2.797000       0.439427
                                                         0.521500       0.006650
                                                         0.159600      -0.000574

                          5       2    2s                2.797000      -0.196168
                                                         0.521500       0.238162
                                                         0.159600       0.104468

                          5       3    3s                2.797000       0.000000
                                                         0.521500       0.000000
                                                         0.159600       0.179964

                          6       1    1dx2              0.550000       0.578155
                          6       1    1dxy              0.550000       1.001394
                          6       1    1dxz              0.550000       1.001394
                          6       1    1dy2              0.550000       0.578155
                          6       1    1dyz              0.550000       1.001394
                          6       1    1dz2              0.550000       0.578155

     AE Potential information for                                            ALL

       Description:                                       All-electron potential
                                          Krack, Parrinello, PCCP 2, 2105 (2000)

       Gaussian exponent of the core charge distribution:               4.109048
       Electronic configuration (s p d ...):                           4   2   0


 MOLECULE KIND INFORMATION


 All atoms are their own molecule, skipping detailed information


 TOTAL NUMBERS AND MAXIMUM NUMBERS

  Total number of            - Atomic kinds:                                   4
                             - Atoms:                                         15
                             - Shell sets:                                    78
[...]
 calculate_vxc_atom                  94  8.0    0.061    0.357    2.399    2.400
 contract_B_L                         4  7.0    0.004    0.006    2.286    2.364
 mp_waitall_1                     97654 12.0    1.695    2.265    1.695    2.265
 dbt_total                            8  8.0    0.000    0.000    2.070    2.070
 transfer_rs2pw_30                   94  9.0    0.889    0.938    2.020    2.060
 transfer_pw2rs_30                   94 12.0    0.863    0.937    1.958    2.050
 dbt_contract                         4  9.0    0.001    0.001    1.669    2.041
 gaVxcgb_GC                         279  9.0    0.041    1.865    0.041    1.865
 calc_pair_dist_radii                 1 10.0    0.571    0.619    1.753    1.837
 xc_functional_eval                 651 10.9    0.001    0.002    1.320    1.722
 pbe_lda_eval                       651 11.9    1.319    1.722    1.319    1.722
 mp_sum_dm                         4328  7.6    1.502    1.641    1.502    1.641
 mp_sendrecv_dv                   40420 10.0    1.507    1.572    1.507    1.572
 transfer_rs2pw_90                   94  9.0    0.257    0.315    1.161    1.535
 pw_scatter_p                      1028 12.1    1.340    1.520    1.340    1.520
 create_qs_kind_set                   1  2.0    0.000    0.000    1.455    1.456
 read_qs_kind                         4  3.0    0.816    0.829    1.455    1.456
 pw_gather_p                        937 11.8    1.030    1.245    1.030    1.245
 cp2k_distribution_to_z_slices       94  9.0    0.433    0.475    0.977    1.206
 integrate_four_center_main          94 10.0    0.018    0.036    1.088    1.203
 rpa_num_int_RPA_matrix_operati     100  7.0    0.001    0.004    1.201    1.203
 transfer_pw2rs_90                   94 12.0    0.253    0.298    1.079    1.195
 integrate_four_center_bin        19769 11.0    1.070    1.173    1.070    1.173
 rs_grid_zero                       472 11.2    1.076    1.108    1.076    1.108
 fft_wrap_pw1pw2_90                 188 10.5    0.028    0.047    0.935    1.079
 mp_isendrecv_dv                  80840 12.0    0.617    1.050    0.617    1.050
 pw_derive                          840 11.3    0.922    1.001    0.922    1.001
 mp_waitall_2                        50 15.7    0.177    0.963    0.177    0.963
 mp_cart_create                     642  9.8    0.817    0.944    0.818    0.944
 dbt_pgrid_create_expert             84 10.8    0.000    0.000    0.781    0.902
 qs_energies_init_hamiltonians        1  3.0    0.000    0.000    0.900    0.900
 build_core_hamiltonian_matrix        1  4.0    0.000    0.000    0.889    0.889
 overlap_condnum                      1  5.0    0.000    0.000    0.886    0.887
 calc_mat_Q                         100  8.0    0.000    0.001    0.875    0.882
 dbt_tas_multiply                     8 11.5    0.000    0.000    0.872    0.872
 dbt_tas_total                        8 12.5    0.002    0.006    0.871    0.871
 contract_S_to_Q                    100  9.0    0.001    0.001    0.862    0.869
 dbt_copy                            12 10.1    0.000    0.001    0.213    0.861
 dbt_reshape                          8 11.6    0.015    0.019    0.190    0.836
 dbt_communicate_buffer               8 12.6    0.002    0.002    0.168    0.814
 arnoldi_conjugate_gradient           5  6.0    0.018    0.021    0.769    0.769
 pw_copy                           1405 10.6    0.706    0.767    0.706    0.767
 calculate_rho_atom                 376  9.0    0.400    0.681    0.400    0.681
 dbt_remap                            8 10.0    0.002    0.003    0.670    0.670
 calculate_dm_sparse                 93  6.0    0.001    0.001    0.647    0.662
 cp_dbcsr_plus_fm_fm_t               93  7.0    0.001    0.002    0.646    0.661
 parser_read_line                172814  4.0    0.059    0.064    0.639    0.656
 compute_vec_Sigma_x_minus_vxc_       1  4.0    0.000    0.001    0.648    0.648
 dbt_nd_mp_comm                       8 11.0    0.000    0.000    0.594    0.639
 pw_copy_to_array                   937 11.8    0.401    0.633    0.401    0.633
 transfer_pw2rs_10                   94 12.0    0.226    0.270    0.605    0.627
 pw_poisson_rebuild                  94  9.0    0.000    0.000    0.602    0.626
 ps_wavelet_create                    1 10.0    0.000    0.000    0.602    0.626
 RS_z_slice_distribution              1 11.0    0.498    0.583    0.602    0.626
 transfer_rs2pw_10                   94  9.0    0.228    0.244    0.604    0.614
 parser_read_line_low               192  5.0    0.060    0.259    0.580    0.596
 mp_sum_dv                        19162 11.1    0.507    0.590    0.507    0.590
 pw_poisson_set                      95  8.9    0.002    0.003    0.559    0.573
 mp_irecv_dm3                      3396 11.5    0.246    0.569    0.246    0.569
 mp_isend_dm3                      3396 11.5    0.220    0.563    0.220    0.563
 broadcast_input_information        192  6.0    0.143    0.159    0.520    0.558
 dbcsr_complete_redistribute        310  8.4    0.018    0.022    0.536    0.547
 dbt_tas_replicate                    8 13.5    0.030    0.040    0.071    0.546
 cp_fm_cholesky_invert              101  8.0    0.487    0.512    0.487    0.512
 dbt_tas_communicate_buffer          17 15.8    0.002    0.002    0.019    0.496
 dbt_tas_replicate_communicate_       6 14.5    0.000    0.000    0.013    0.491
 dbcsr_sym_matrix_vector_mult      2625  7.0    0.041    0.045    0.409    0.470
 pw_integral_ab_c1d_c1d_gs           94  9.0    0.306    0.309    0.405    0.444
 Vh_1c_gg_integrals                  94  8.0    0.011    0.121    0.214    0.436
 mp_max_i                           636  3.1    0.169    0.412    0.169    0.412
 copy_dbcsr_to_fm                   120  6.4    0.002    0.003    0.391    0.401
 pw_axpy                            935  9.3    0.344    0.391    0.344    0.391
 fft_wrap_pw1pw2_30                 188 10.5    0.005    0.006    0.374    0.391
 pw_copy_from_array                1028 12.1    0.306    0.383    0.306    0.383
 mp2_main_alloc_hfx                   1  4.0    0.176    0.381    0.176    0.381
 mp_alltoall_z11v                   376 13.5    0.363    0.378    0.363    0.378
 mp_sum_i                            21  9.7    0.206    0.372    0.206    0.372
 restraint_control                    1  2.0    0.000    0.000    0.205    0.371
 copy_fm_to_dbcsr                   190  8.0    0.001    0.001    0.346    0.357
 dbcsr_multiply_generic             130  8.1    0.007    0.008    0.337    0.351
 integrate_four_center_dist_KS       94 10.0    0.035    0.038    0.314    0.315
 init_scf_run                         1  3.0    0.000    0.000    0.302    0.302
 compute_Erpa_by_freq_int           100  8.0    0.001    0.014    0.296    0.298
 integrate_four_center_getP          94 10.0    0.035    0.037    0.286    0.295
 cp_fm_cholesky_decompose           102  9.0    0.287    0.290    0.287    0.290
 mp_isend_dv                      29151 11.8    0.213    0.282    0.213    0.282
 cp_fm_syrk                           3  7.0    0.247    0.268    0.247    0.268
 scf_env_initial_rho_setup            1  4.0    0.000    0.000    0.260    0.260
 mp_alltoall_i11v                  1052  9.3    0.256    0.259    0.256    0.259
 cp_fm_to_fm_submat_general         112 10.1    0.173    0.253    0.173    0.253
 mp2_eri_3c_integrate                 1  7.0    0.007    0.012    0.095    0.252
 dbcsr_desymmetrize_deep            122  7.3    0.004    0.005    0.243    0.251
 offload_free_buffer                102  8.5    0.222    0.246    0.222    0.246
 integrate_set_3c                  9744  8.0    0.075    0.211    0.088    0.244
 dbcsr_add_d                       4016  7.0    0.004    0.004    0.037    0.243
 yz_to_xz                           188 14.0    0.017    0.019    0.228    0.241
 mp_bcast_i_src                     768  7.0    0.177    0.241    0.177    0.241
 dbcsr_add_anytype                 4016  8.0    0.005    0.032    0.033    0.238
 calculate_rho_atom_coeff            94  6.0    0.019    0.038    0.236    0.237
 dbt_tas_dbm                          8 13.5    0.000    0.000    0.236    0.236
 dbm_multiply                         8 15.5    0.178    0.224    0.178    0.224
 create_B                             1  8.0    0.000    0.000    0.216    0.223
 mp_bcast_am_src                    192  7.0    0.167    0.191    0.192    0.223
 mp_sum_l                          1052  6.4    0.173    0.219    0.173    0.219
 dbt_tas_mm_1N                        6 14.5    0.000    0.000    0.167    0.212
 cp_fm_redistribute_start            99  8.0    0.129    0.148    0.176    0.212
 qs_init_subsys                       1  2.0    0.004    0.004    0.211    0.211
 pw_zero                            560 10.3    0.181    0.210    0.181    0.210
 integrate_four_center_load          94 10.0    0.000    0.001    0.156    0.202
 hfx_load_balance                     1 11.0    0.000    0.000    0.156    0.201
 qs_env_setup                         1  3.0    0.000    0.000    0.200    0.201
 qs_env_rebuild_pw_env                2  3.5    0.000    0.000    0.198    0.200
 pw_env_rebuild                       1  5.0    0.001    0.001    0.198    0.200
 update_ks_atom                      94  8.0    0.015    0.028    0.147    0.197
 dbcsr_col_vec_to_rep_row          2625  8.0    0.018    0.021    0.139    0.191
 fft_wrap_pw1pw2_10                 188 10.5    0.002    0.002    0.189    0.191
 mp_bcast_dm                       2820  9.0    0.132    0.184    0.132    0.184
 create_A                             1  8.0    0.001    0.001    0.173    0.178
 hfx_load_balance_range               1 12.0    0.000    0.000    0.131    0.177
 mp_bcast_dv                       2724  9.0    0.071    0.172    0.071    0.172
 dbcsr_rep_row_to_rep_col_vec      2625  8.0    0.013    0.015    0.069    0.170
 dbcsr_finalize                    6004 10.8    0.012    0.056    0.041    0.169
 multiply_cannon                    130  9.1    0.015    0.016    0.158    0.169
 dbt_tas_estimate_result_nze          4 12.0    0.002    0.003    0.169    0.169
 xz_to_yz                           188 11.0    0.011    0.014    0.164    0.167
 hybrid_alltoall_any                382 10.9    0.009    0.010    0.156    0.165
 mp_rank_compare                   1965 12.9    0.160    0.165    0.160    0.165
 vxc_of_r_new                       558  9.0    0.001    0.025    0.004    0.160
 pw_grid_setup                        4  6.0    0.000    0.000    0.151    0.153
 pw_grid_setup_internal               4  7.0    0.003    0.004    0.151    0.152
 make_m2s                           260  9.1    0.007    0.008    0.136    0.146
 rs_scatter_matrices                 94  7.0    0.001    0.002    0.132    0.139
 cp_fm_symm                          94  7.0    0.120    0.134    0.120    0.134
 multiply_cannon_loop               130 10.1    0.023    0.024    0.113    0.122
 fm_general_add_bse                   5 10.2    0.000    0.000    0.093    0.104
 calculate_rho0_atom                376  9.0    0.100    0.104    0.100    0.104
 scale_and_distribute               188 10.0    0.093    0.101    0.093    0.101
 make_images                        260 10.1    0.015    0.016    0.078    0.089
 cp_fm_uplo_to_full                 104  8.0    0.024    0.088    0.024    0.088
 pw_scale                           373  9.5    0.063    0.082    0.063    0.082
 dbcsr_merge_all                   4921 11.5    0.016    0.064    0.022    0.079
 mp_alltoall_i22                    432  9.1    0.065    0.078    0.065    0.078
 dbcsr_iterator_start             34000  8.8    0.042    0.064    0.049    0.078
 dbcsr_copy                       11350  7.6    0.041    0.045    0.067    0.075
 postprocess_bse                      1  9.0    0.000    0.000    0.069    0.072
 pw_grid_sort                         4  8.0    0.043    0.045    0.067    0.071
 scf_post_calculation_gpw             1  3.0    0.000    0.000    0.058    0.058
 write_available_results              1  4.0    0.000    0.000    0.058    0.058
 write_mo_free_results                1  5.0    0.003    0.004    0.058    0.058
 mp_bcast_iv                        273  6.2    0.027    0.057    0.027    0.057
 create_integ_mat                     4  6.0    0.003    0.004    0.054    0.055
 dbcsr_create_new                 14483  9.0    0.039    0.042    0.049    0.054
 dbcsr_iterator_stop              34000  8.8    0.030    0.042    0.037    0.051
 mp_irecv_dv                      29040 11.8    0.032    0.050    0.032    0.050
 array2fm                             4  7.0    0.000    0.000    0.048    0.050
 mixing_init                          1  5.0    0.041    0.044    0.045    0.045
 dbt_distribution_new_expert         76 10.1    0.001    0.002    0.042    0.044
 self_consistency_check              93  5.0    0.000    0.000    0.035    0.043
 cp_sm_mix                           93  6.0    0.000    0.001    0.034    0.042
 mp_max_d                            95  6.9    0.034    0.042    0.034    0.042
 cube_transpose_2                   188 11.0    0.004    0.004    0.038    0.042
 compute_max_radius                   1  6.0    0.019    0.041    0.019    0.041
 make_images_sizes                  260 11.1    0.000    0.000    0.036    0.040
 mp_sum_im                        10916 13.0    0.031    0.040    0.031    0.040
 dbt_split_blocks_generic            20  8.8    0.009    0.011    0.039    0.040
 mp_alltoall_i44                    260 12.1    0.036    0.040    0.036    0.040
 mp_maxloc_dv                      1533  1.0    0.038    0.039    0.038    0.039
 create_fast_row_vec_access        5250  8.0    0.022    0.025    0.033    0.038
 mult_B_with_W                        1  8.0    0.000    0.000    0.036    0.038
 create_fast_col_vec_access        5250  8.0    0.022    0.024    0.033    0.037
 dbcsr_crop_matrix                  465 10.0    0.003    0.003    0.034    0.037
 get_multipoles_mo                    1 10.0    0.000    0.000    0.034    0.036
 cube_transpose_1                   188 14.0    0.003    0.004    0.033    0.036
 multiply_cannon_metrocomm3        3560 11.1    0.006    0.006    0.023    0.035
 Q_trace_and_add_unit_matrix        100  8.0    0.001    0.016    0.028    0.035
 mp_cart_rank                    116532 10.3    0.029    0.033    0.029    0.033
 abc_contract                      9744  9.0    0.013    0.033    0.013    0.033
 mp_comm_split_direct                48 14.5    0.023    0.033    0.023    0.033
 dbt_tas_distribution_new            96 11.8    0.021    0.022    0.031    0.032
 dbm_reserve_blocks                  68 14.1    0.026    0.030    0.026    0.030
 write_mo_set_to_restart             93  5.0    0.001    0.007    0.011    0.030
 pw_grid_distribute                   4  8.0    0.010    0.010    0.018    0.029
 dbcsr_work_destroy_all            5597 11.5    0.005    0.022    0.007    0.029
 fm_general_add_bse_1_setup           5 11.2    0.023    0.029    0.023    0.029
 mp_alltoall_i                       40 13.9    0.020    0.028    0.020    0.028
 dbcsr_copy_submatrix               465 11.0    0.004    0.004    0.026    0.028
 array2fm_info                        4  8.0    0.026    0.028    0.026    0.028
 print_transition_amplitudes          1 10.0    0.000    0.000    0.028    0.028
 dbcsr_work_create                 5597 10.6    0.005    0.018    0.008    0.028
 print_transition_amplitudes_co      50 11.0    0.000    0.001    0.028    0.028
 filter_eigvec_contrib               50 12.0    0.016    0.017    0.028    0.028
 calc_fm_mat_S_rpa                  100  9.0    0.013    0.027    0.013    0.027
 calculate_hirshfeld_normalizat       1  6.0    0.001    0.014    0.023    0.027
 fm_general_add_bse_5_comm_buff       5 11.2    0.000    0.000    0.015    0.027
 communicate_buffer                   5 12.2    0.001    0.001    0.015    0.027
 sort_shells                          4  9.0    0.024    0.026    0.024    0.026
 write_mo_set_low                     5  6.0    0.000    0.000    0.009    0.026
 cp_fm_write_unformatted              5  7.0    0.008    0.021    0.009    0.026
 mp_cart_sub                        246  8.4    0.024    0.026    0.024    0.026
 mp_allgather_i34                   130 10.1    0.022    0.026    0.022    0.026
 mp2_main_free_hfx                    1  4.0    0.010    0.025    0.010    0.025
 xc_pw_smooth                        93 10.0    0.000    0.000    0.021    0.024
 make_images_data                   260 11.1    0.003    0.004    0.014    0.024
 hirshfeld_integration                1  6.0    0.001    0.005    0.024    0.024
 get_2c_integrals                     1  6.0    0.000    0.000    0.021    0.024
 rs_grid_create_descriptor            4  6.0    0.001    0.001    0.023    0.024
 cp_dbcsr_sm_fm_multiply              3 11.0    0.000    0.000    0.023    0.023
 multiply_cannon_metrocomm4        3332 11.1    0.010    0.011    0.020    0.023
 multiply_cannon_multrec           3560 11.1    0.014    0.022    0.014    0.023
 mp_sum_iv                          353  9.5    0.018    0.023    0.018    0.023
 dbcsr_scale_anytype               4017  9.0    0.008    0.009    0.020    0.022
 multiply_cannon_metrocomm1        3560 11.1    0.004    0.004    0.014    0.022
 fm_general_add_bse_4_buf_from_       1 10.0    0.016    0.022    0.016    0.022
 dbcsr_data_release               72482 10.2    0.014    0.022    0.014    0.022
 dbcsr_sym_matrix_vector_mult_l    2625  8.0    0.010    0.015    0.019    0.022
 dbt_create_new                      40  9.5    0.001    0.001    0.020    0.022
 cp_fm_create                       457  7.8    0.011    0.020    0.011    0.020
 fm_general_add_bse_4_buf_from_       1 10.0    0.016    0.020    0.016    0.020
 multiply_cannon_metrocomm2        3234 11.1    0.010    0.010    0.018    0.019
 mp_bcast_av                        767  1.0    0.007    0.010    0.015    0.019
 mp_comm_split                       99  9.0    0.018    0.019    0.018    0.019
 dbt_tas_reshape                      9 14.0    0.000    0.000    0.017    0.018
 mp_send_dv                           5  8.0    0.001    0.018    0.001    0.018
 dbt_tas_reserve_blocks_index        60 13.0    0.001    0.001    0.016    0.018
 pw_grid_remap                        4  8.0    0.003    0.004    0.014    0.017
 dbcsr_data_new                   35534 10.8    0.009    0.017    0.009    0.017
 dbcsr_make_images_dense            188 10.0    0.004    0.004    0.010    0.016
 convert_to_new_pgrid                24 13.5    0.005    0.008    0.013    0.016
 dbt_tas_create_split                44 13.2    0.000    0.000    0.015    0.016
 dbt_tas_create_split_rows_or_c      44 14.2    0.000    0.000    0.015    0.016
 dbm_redistribute                     9 13.7    0.015    0.016    0.015    0.016
 reshape_mm_small                     8 13.5    0.002    0.002    0.016    0.016
 dbcsr_iterator_seek              34000  9.8    0.007    0.016    0.007    0.016
 mp_bcast_iv_src                    192  7.0    0.008    0.016    0.008    0.016
 pw_grid_assign                       4  8.0    0.014    0.015    0.015    0.016
 dbcsr_destroy                     9141  8.6    0.010    0.010    0.014    0.015
 ao_to_mo_and_store_B_mult_gw_1       4  7.0    0.000    0.000    0.011    0.015
 -------------------------------------------------------------------------------

 The number of warnings for this run is : 1
 
 -------------------------------------------------------------------------------
  **** **** ******  **  PROGRAM ENDED AT                 2025-03-11 10:21:15.781
 ***** ** ***  *** **   PROGRAM RAN ON                              i03r06c01s10
 **    ****   ******    PROGRAM RAN BY                                   di38fab
 ***** **    ** ** **   PROGRAM PROCESS ID                               2291324
  **** **  *******  **  PROGRAM STOPPED IN /hppfs/scratch/04/di38fab/05_MOL/aUKB
                                           qsEOTmq69kFe5R_nOg/5k_set_final_qzvp/
                                           METURA01/aug-cc-pVDZ
