 DBCSR| CPU Multiplication driver                                           BLAS (U)
 DBCSR| Multrec recursion limit                                              512 (U)
 DBCSR| Multiplication stack size                                           1000 (D)
 DBCSR| Maximum elements for images                                    UNLIMITED (U)
 DBCSR| Multiplicative factor virtual images                                   1 (U)
 DBCSR| Use multiplication densification                                       T (D)
 DBCSR| Multiplication size stacks                                             3 (U)
 DBCSR| Use memory pool for CPU allocation                                     F (U)
 DBCSR| Number of 3D layers                                               SINGLE (U)
 DBCSR| Use MPI memory allocation                                              F (U)
 DBCSR| Use RMA algorithm                                                      F (U)
 DBCSR| Use Communication thread                                               T (U)
 DBCSR| Communication thread load                                             75 (D)
 DBCSR| MPI: My process id                                                     0
 DBCSR| MPI: Number of processes                                              48
 DBCSR| OMP: Current number of threads                                         4
 DBCSR| OMP: Max number of threads                                             4
 DBCSR| Split modifier for TAS multiplication algorithm                  1.0E+00 (U)


  **** **** ******  **  PROGRAM STARTED AT               2025-03-26 06:58:12.950
 ***** ** ***  *** **   PROGRAM STARTED ON                          i01r04c01s05
 **    ****   ******    PROGRAM STARTED BY                               di38fab
 ***** **    ** ** **   PROGRAM PROCESS ID                               2858689
  **** **  *******  **  PROGRAM STARTED IN /hppfs/scratch/04/di38fab/05_MOL/W4-1
                                           1+ALK/c2h4/TZVP/GW+BSE/1e-4

 CP2K| version string:                 CP2K version 2025.1 (Development Version)
 CP2K| source code revision number:                                  git:d2e611a
 CP2K| cp2kflags: omp libint fftw3 libxc parallel scalapack max_contr=4         
 CP2K| is freely available from                            https://www.cp2k.org/
 CP2K| Program compiled at                       Thu 06 Mar 2025 05:09:20 PM CET
 CP2K| Program compiled on                                               login02
 CP2K| Program compiled for                                        Supermuc-foss
 CP2K| Data directory path                  /hppfs/work/pn36zo/di38fab/cp2k/data
 CP2K| Input file name                                                    GW.inp

 GLOBAL| Force Environment number                                              1
 GLOBAL| Basis set file name            /hppfs/scratch/04/di38fab/04_TMD/BASIS_A
 GLOBAL| Potential file name            /hppfs/work/pn36zo/di38fab/cp2k/data/ALL
 GLOBAL| MM Potential file name                                     MM_POTENTIAL
 GLOBAL| Coordinate file name                                      __STD_INPUT__
 GLOBAL| Method name                                                        CP2K
 GLOBAL| Project name                                                       MoS2
 GLOBAL| Run type                                                         ENERGY
 GLOBAL| FFT library                                                       FFTW3
 GLOBAL| Diagonalization library                                       ScaLAPACK
 GLOBAL| DGEMM library                                                      BLAS
 GLOBAL| Orthonormality check for eigenvectors                          DISABLED
 GLOBAL| Matrix multiplication library                                 ScaLAPACK
 GLOBAL| All-to-all communication in single precision                          F
 GLOBAL| FFTs using library dependent lengths                                  F
 GLOBAL| Grid backend                                                       AUTO
 GLOBAL| Global print level                                               MEDIUM
 GLOBAL| MPI I/O enabled                                                       T
 GLOBAL| Total number of message passing processes                            48
 GLOBAL| Number of threads for this process                                    4
 GLOBAL| This output is from process                                           0
 GLOBAL| OpenMP stack size per thread (OMP_STACKSIZE)                    default
 GLOBAL| CPU model name             Intel(R) Xeon(R) Platinum 8174 CPU @ 3.10GHz

 MEMORY| system memory details [Kb]
 MEMORY|                        rank 0           min           max       average
 MEMORY| MemTotal             98436660      98436660      98436708      98436672
 MEMORY| MemFree              84006800      84006800      86032028      85069619
 MEMORY| Buffers                     0             0             0             0
 MEMORY| Cached                2416560       2356200       2416560       2381576
 MEMORY| Slab                  1196440        889088       1196440       1029789
 MEMORY| SReclaimable           268572        190308        268572        231967
 MEMORY| MemLikelyFree        86691932      86691932      88578536      87683162


 *** Fundamental physical constants (SI units) ***

 *** Literature: B. J. Mohr and B. N. Taylor,
 ***             CODATA recommended values of the fundamental physical
 ***             constants: 2006, Web Version 5.1
 ***             http://physics.nist.gov/constants

 Speed of light in vacuum [m/s]                             2.99792458000000E+08
 Magnetic constant or permeability of vacuum [N/A**2]       1.25663706143592E-06
 Electric constant or permittivity of vacuum [F/m]          8.85418781762039E-12
 Planck constant (h) [J*s]                                  6.62606896000000E-34
 Planck constant (h-bar) [J*s]                              1.05457162825177E-34
 Elementary charge [C]                                      1.60217648700000E-19
 Electron mass [kg]                                         9.10938215000000E-31
 Electron g factor [ ]                                     -2.00231930436220E+00
 Proton mass [kg]                                           1.67262163700000E-27
 Fine-structure constant                                    7.29735253760000E-03
 Rydberg constant [1/m]                                     1.09737315685270E+07
 Avogadro constant [1/mol]                                  6.02214179000000E+23
 Boltzmann constant [J/K]                                   1.38065040000000E-23
 Atomic mass unit [kg]                                      1.66053878200000E-27
 Bohr radius [m]                                            5.29177208590000E-11

 *** Conversion factors ***

 [u] -> [a.u.]                                              1.82288848426455E+03
 [Angstrom] -> [Bohr] = [a.u.]                              1.88972613288564E+00
 [a.u.] = [Bohr] -> [Angstrom]                              5.29177208590000E-01
 [a.u.] -> [s]                                              2.41888432650478E-17
 [a.u.] -> [fs]                                             2.41888432650478E-02
 [a.u.] -> [J]                                              4.35974393937059E-18
 [a.u.] -> [N]                                              8.23872205491840E-08
 [a.u.] -> [K]                                              3.15774647902944E+05
 [a.u.] -> [kJ/mol]                                         2.62549961709828E+03
 [a.u.] -> [kcal/mol]                                       6.27509468713739E+02
 [a.u.] -> [Pa]                                             2.94210107994716E+13
 [a.u.] -> [bar]                                            2.94210107994716E+08
 [a.u.] -> [atm]                                            2.90362800883016E+08
 [a.u.] -> [eV]                                             2.72113838565563E+01
 [a.u.] -> [Hz]                                             6.57968392072181E+15
 [a.u.] -> [1/cm] (wave numbers)                            2.19474631370540E+05
 [a.u./Bohr**2] -> [1/cm]                                   5.14048714338585E+03
 

 CELL_TOP| Volume [angstrom^3]:                                     27000.000000
 CELL_TOP| Vector a [angstrom    30.000     0.000     0.000   |a| =    30.000000
 CELL_TOP| Vector b [angstrom     0.000    30.000     0.000   |b| =    30.000000
 CELL_TOP| Vector c [angstrom     0.000     0.000    30.000   |c| =    30.000000
 CELL_TOP| Angle (b,c), alpha [degree]:                                90.000000
 CELL_TOP| Angle (a,c), beta  [degree]:                                90.000000
 CELL_TOP| Angle (a,b), gamma [degree]:                                90.000000
 CELL_TOP| Numerically orthorhombic:                                         YES
 CELL_TOP| Periodicity                                                      NONE

 GENERATE|  Preliminary Number of Bonds generated:                             0
 GENERATE|  Achieved consistency in connectivity generation.

 CELL| Volume [angstrom^3]:                                         27000.000000
 CELL| Vector a [angstrom]:      30.000     0.000     0.000   |a| =    30.000000
 CELL| Vector b [angstrom]:       0.000    30.000     0.000   |b| =    30.000000
 CELL| Vector c [angstrom]:       0.000     0.000    30.000   |c| =    30.000000
 CELL| Angle (b,c), alpha [degree]:                                    90.000000
 CELL| Angle (a,c), beta  [degree]:                                    90.000000
 CELL| Angle (a,b), gamma [degree]:                                    90.000000
 CELL| Numerically orthorhombic:                                             YES
 CELL| Periodicity                                                          NONE

 CELL_REF| Volume [angstrom^3]:                                     27000.000000
 CELL_REF| Vector a [angstrom    30.000     0.000     0.000   |a| =    30.000000
 CELL_REF| Vector b [angstrom     0.000    30.000     0.000   |b| =    30.000000
 CELL_REF| Vector c [angstrom     0.000     0.000    30.000   |c| =    30.000000
 CELL_REF| Angle (b,c), alpha [degree]:                                90.000000
 CELL_REF| Angle (a,c), beta  [degree]:                                90.000000
 CELL_REF| Angle (a,b), gamma [degree]:                                90.000000
 CELL_REF| Numerically orthorhombic:                                         YES
 CELL_REF| Periodicity                                                      NONE

 *******************************************************************************
 *******************************************************************************
 **                                                                           **
 **     #####                         ##              ##                      **
 **    ##   ##            ##          ##              ##                      **
 **   ##     ##                       ##            ######                    **
 **   ##     ##  ##   ##  ##   #####  ##  ##   ####   ##    #####    #####    **
 **   ##     ##  ##   ##  ##  ##      ## ##   ##      ##   ##   ##  ##   ##   **
 **   ##  ## ##  ##   ##  ##  ##      ####     ###    ##   ######   ######    **
 **    ##  ###   ##   ##  ##  ##      ## ##      ##   ##   ##       ##        **
 **     #######   #####   ##   #####  ##  ##  ####    ##    #####   ##        **
 **           ##                                                    ##        **
 **                                                                           **
 **                                                ... make the atoms dance   **
 **                                                                           **
 **            Copyright (C) by CP2K developers group (2000-2025)             **
 **                      J. Chem. Phys. 152, 194103 (2020)                    **
 **                                                                           **
 *******************************************************************************

 DFT| Spin restricted Kohn-Sham (RKS) calculation                            RKS
 DFT| Multiplicity                                                             1
 DFT| Number of spin states                                                    1
 DFT| Charge                                                                   0
 DFT| Self-interaction correction (SIC)                                       NO
 DFT| Cutoffs: density                                              1.000000E-10
 DFT|          gradient                                             1.000000E-10
 DFT|          tau                                                  1.000000E-10
 DFT|          cutoff_smoothing_range                               0.000000E+00
 DFT| XC density smoothing                                                  NONE
 DFT| XC derivatives                                                          PW

 FUNCTIONAL| PBE:
 FUNCTIONAL| J.P.Perdew, K.Burke, M.Ernzerhof, Phys. Rev. Letter, vol. 77, n 18,
 FUNCTIONAL|  pp. 3865-3868, (1996)sx=0.750sc=1.000{spin unpolarized}           


 QS| Method:                                                                GAPW
 QS| Density plane wave grid type                        NON-SPHERICAL FULLSPACE
 QS| Number of grid levels:                                                    4
 QS| Density cutoff [a.u.]:                                                250.0
 QS| Multi grid cutoff [a.u.]: 1) grid level                               250.0
 QS|                           2) grid level                                83.3
 QS|                           3) grid level                                27.8
 QS|                           4) grid level                                 9.3
 QS| Grid level progression factor:                                          3.0
 QS| Relative density cutoff [a.u.]:                                        50.0
 QS| Interaction thresholds: eps_pgf_orb:                                1.0E-12
 QS|                         eps_filter_matrix:                          0.0E+00
 QS|                         eps_core_charge:                            1.0E-14
 QS|                         eps_rho_gspace:                             1.0E-12
 QS|                         eps_rho_rspace:                             1.0E-12
 QS|                         eps_gvg_rspace:                             1.0E-06
 QS|                         eps_ppl:                                    1.0E-02
 QS|                         eps_ppnl:                                   1.0E-08
 QS| GAPW|      One center basis from orbital basis primitives
 QS| GAPW|                   eps_fit:                                    1.0E-04
 QS| GAPW|                   eps_iso:                                    1.0E-12
 QS| GAPW|                   eps_svd:                                    1.0E-08
 QS| GAPW|                   eps_cpc:                                    1.0E-12
 QS| GAPW|   atom-r-grid: quadrature:                                     GC_LOG
 QS| GAPW|      atom-s-grid:  max l :                                          8
 QS| GAPW|      max_l_rho0 :                                                   2


 ATOMIC KIND INFORMATION

  1. Atomic kind: C                                     Number of atoms:       2

     Orbital Basis Set                                        aug-TZVP-MOLOPT-ae

       Number of orbital shell sets:                                           2
       Number of orbital shells:                                              16
       Number of primitive Cartesian functions:                               13
       Number of Cartesian basis functions:                                   71
       Number of spherical basis functions:                                   56
       Norm type:                                                              2

       Normalised Cartesian orbitals:

                        Set   Shell   Orbital            Exponent    Coefficient

                          1       1    1s                0.040000       0.000000
                                                         0.097098       0.019281
                                                         0.283960       0.027513
                                                         0.806764       0.003692
                                                         2.441624       0.446183
                                                         6.739673       1.752510
                                                        34.417212       0.637474

                          1       2    2s                0.040000       0.000000
                                                         0.097098       0.029117
                                                         0.283960       0.094997
                                                         0.806764       0.362633
                                                         2.441624      -0.104551
                                                         6.739673      -0.288836
                                                        34.417212       1.102934

                          1       3    3s                0.040000       0.000000
                                                         0.097098       0.047046
                                                         0.283960       0.169545
                                                         0.806764      -0.252838
                                                         2.441624      -0.199197
                                                         6.739673      -0.168746
                                                        34.417212      -6.120053

                          1       4    4s                0.040000       0.000000
                                                         0.097098       0.188374
                                                         0.283960      -0.341415
                                                         0.806764       0.091223
                                                         2.441624      -0.053941
                                                         6.739673      -0.401007
                                                        34.417212      -3.786931

                          1       5    5s                0.040000       0.099533
                                                         0.097098      -0.167672
                                                         0.283960      -0.126383
                                                         0.806764       0.030074
                                                         2.441624       0.000000
                                                         6.739673       0.000000
                                                        34.417212       0.000000

                          1       6    2px               0.040000       0.000000
                                                         0.097098       0.005087
                                                         0.283960       0.032186
                                                         0.806764       0.779023
                                                         2.441624       0.695625
                                                         6.739673       2.243109
                                                        34.417212       2.016536
                          1       6    2py               0.040000       0.000000
                                                         0.097098       0.005087
                                                         0.283960       0.032186
                                                         0.806764       0.779023
                                                         2.441624       0.695625
                                                         6.739673       2.243109
                                                        34.417212       2.016536
                          1       6    2pz               0.040000       0.000000
                                                         0.097098       0.005087
                                                         0.283960       0.032186
                                                         0.806764       0.779023
                                                         2.441624       0.695625
                                                         6.739673       2.243109
                                                        34.417212       2.016536

                          1       7    3px               0.040000       0.000000
                                                         0.097098       0.008084
                                                         0.283960       0.294367
                                                         0.806764      -0.188640
                                                         2.441624       0.912249
                                                         6.739673      -2.720242
                                                        34.417212       1.690366
                          1       7    3py               0.040000       0.000000
                                                         0.097098       0.008084
                                                         0.283960       0.294367
                                                         0.806764      -0.188640
                                                         2.441624       0.912249
                                                         6.739673      -2.720242
                                                        34.417212       1.690366
                          1       7    3pz               0.040000       0.000000
                                                         0.097098       0.008084
                                                         0.283960       0.294367
                                                         0.806764      -0.188640
                                                         2.441624       0.912249
                                                         6.739673      -2.720242
                                                        34.417212       1.690366

                          1       8    4px               0.040000       0.000000
                                                         0.097098       0.081068
                                                         0.283960      -0.017243
                                                         0.806764      -0.070055
                                                         2.441624      -0.855991
                                                         6.739673       1.761645
                                                        34.417212     -12.705833
                          1       8    4py               0.040000       0.000000
                                                         0.097098       0.081068
                                                         0.283960      -0.017243
                                                         0.806764      -0.070055
                                                         2.441624      -0.855991
                                                         6.739673       1.761645
                                                        34.417212     -12.705833
                          1       8    4pz               0.040000       0.000000
                                                         0.097098       0.081068
                                                         0.283960      -0.017243
                                                         0.806764      -0.070055
                                                         2.441624      -0.855991
                                                         6.739673       1.761645
                                                        34.417212     -12.705833

                          1       9    5px               0.040000       0.032085
                                                         0.097098      -0.027366
                                                         0.283960      -0.100343
                                                         0.806764      -0.020266
                                                         2.441624       0.000000
                                                         6.739673       0.000000
                                                        34.417212       0.000000
                          1       9    5py               0.040000       0.032085
                                                         0.097098      -0.027366
                                                         0.283960      -0.100343
                                                         0.806764      -0.020266
                                                         2.441624       0.000000
                                                         6.739673       0.000000
                                                        34.417212       0.000000
                          1       9    5pz               0.040000       0.032085
                                                         0.097098      -0.027366
                                                         0.283960      -0.100343
                                                         0.806764      -0.020266
                                                         2.441624       0.000000
                                                         6.739673       0.000000
                                                        34.417212       0.000000

                          1      10    3dx2              0.040000       0.000000
                                                         0.097098       0.001415
                                                         0.283960       0.015501
                                                         0.806764       0.546922
                                                         2.441624       3.763414
                                                         6.739673       4.248634
                                                        34.417212     174.894573
                          1      10    3dxy              0.040000       0.000000
                                                         0.097098       0.002451
                                                         0.283960       0.026849
                                                         0.806764       0.947296
                                                         2.441624       6.518424
                                                         6.739673       7.358850
                                                        34.417212     302.926287
                          1      10    3dxz              0.040000       0.000000
                                                         0.097098       0.002451
                                                         0.283960       0.026849
                                                         0.806764       0.947296
                                                         2.441624       6.518424
                                                         6.739673       7.358850
                                                        34.417212     302.926287
                          1      10    3dy2              0.040000       0.000000
                                                         0.097098       0.001415
                                                         0.283960       0.015501
                                                         0.806764       0.546922
                                                         2.441624       3.763414
                                                         6.739673       4.248634
                                                        34.417212     174.894573
                          1      10    3dyz              0.040000       0.000000
                                                         0.097098       0.002451
                                                         0.283960       0.026849
                                                         0.806764       0.947296
                                                         2.441624       6.518424
                                                         6.739673       7.358850
                                                        34.417212     302.926287
                          1      10    3dz2              0.040000       0.000000
                                                         0.097098       0.001415
                                                         0.283960       0.015501
                                                         0.806764       0.546922
                                                         2.441624       3.763414
                                                         6.739673       4.248634
                                                        34.417212     174.894573

                          1      11    4dx2              0.040000       0.000000
                                                         0.097098       0.001225
                                                         0.283960       0.139703
                                                         0.806764       0.323683
                                                         2.441624      -2.510108
                                                         6.739673      -4.401044
                                                        34.417212    -164.169372
                          1      11    4dxy              0.040000       0.000000
                                                         0.097098       0.002122
                                                         0.283960       0.241972
                                                         0.806764       0.560636
                                                         2.441624      -4.347634
                                                         6.739673      -7.622831
                                                        34.417212    -284.349694
                          1      11    4dxz              0.040000       0.000000
                                                         0.097098       0.002122
                                                         0.283960       0.241972
                                                         0.806764       0.560636
                                                         2.441624      -4.347634
                                                         6.739673      -7.622831
                                                        34.417212    -284.349694
                          1      11    4dy2              0.040000       0.000000
                                                         0.097098       0.001225
                                                         0.283960       0.139703
                                                         0.806764       0.323683
                                                         2.441624      -2.510108
                                                         6.739673      -4.401044
                                                        34.417212    -164.169372
                          1      11    4dyz              0.040000       0.000000
                                                         0.097098       0.002122
                                                         0.283960       0.241972
                                                         0.806764       0.560636
                                                         2.441624      -4.347634
                                                         6.739673      -7.622831
                                                        34.417212    -284.349694
                          1      11    4dz2              0.040000       0.000000
                                                         0.097098       0.001225
                                                         0.283960       0.139703
                                                         0.806764       0.323683
                                                         2.441624      -2.510108
                                                         6.739673      -4.401044
                                                        34.417212    -164.169372

                          1      12    5dx2              0.040000       0.006049
                                                         0.097098      -0.003128
                                                         0.283960       0.033814
                                                         0.806764       0.003338
                                                         2.441624       0.000000
                                                         6.739673       0.000000
                                                        34.417212       0.000000
                          1      12    5dxy              0.040000       0.010477
                                                         0.097098      -0.005418
                                                         0.283960       0.058567
                                                         0.806764       0.005781
                                                         2.441624       0.000000
                                                         6.739673       0.000000
                                                        34.417212       0.000000
                          1      12    5dxz              0.040000       0.010477
                                                         0.097098      -0.005418
                                                         0.283960       0.058567
                                                         0.806764       0.005781
                                                         2.441624       0.000000
                                                         6.739673       0.000000
                                                        34.417212       0.000000
                          1      12    5dy2              0.040000       0.006049
                                                         0.097098      -0.003128
                                                         0.283960       0.033814
                                                         0.806764       0.003338
                                                         2.441624       0.000000
                                                         6.739673       0.000000
                                                        34.417212       0.000000
                          1      12    5dyz              0.040000       0.010477
                                                         0.097098      -0.005418
                                                         0.283960       0.058567
                                                         0.806764       0.005781
                                                         2.441624       0.000000
                                                         6.739673       0.000000
                                                        34.417212       0.000000
                          1      12    5dz2              0.040000       0.006049
                                                         0.097098      -0.003128
                                                         0.283960       0.033814
                                                         0.806764       0.003338
                                                         2.441624       0.000000
                                                         6.739673       0.000000
                                                        34.417212       0.000000

                          1      13    4fx3              0.040000       0.000000
                                                         0.097098      -0.000799
                                                         0.283960       0.042127
                                                         0.806764       0.576468
                                                         2.441624       1.033755
                                                         6.739673      -2.026957
                                                        34.417212      49.427593
                          1      13    4fx2y             0.040000       0.000000
                                                         0.097098      -0.001786
                                                         0.283960       0.094199
                                                         0.806764       1.289022
                                                         2.441624       2.311546
                                                         6.739673      -4.532415
                                                        34.417212     110.523457
                          1      13    4fx2z             0.040000       0.000000
                                                         0.097098      -0.001786
                                                         0.283960       0.094199
                                                         0.806764       1.289022
                                                         2.441624       2.311546
                                                         6.739673      -4.532415
                                                        34.417212     110.523457
                          1      13    4fxy2             0.040000       0.000000
                                                         0.097098      -0.001786
                                                         0.283960       0.094199
                                                         0.806764       1.289022
                                                         2.441624       2.311546
                                                         6.739673      -4.532415
                                                        34.417212     110.523457
                          1      13    4fxyz             0.040000       0.000000
                                                         0.097098      -0.003093
                                                         0.283960       0.163158
                                                         0.806764       2.232651
                                                         2.441624       4.003716
                                                         6.739673      -7.850372
                                                        34.417212     191.432243
                          1      13    4fxz2             0.040000       0.000000
                                                         0.097098      -0.001786
                                                         0.283960       0.094199
                                                         0.806764       1.289022
                                                         2.441624       2.311546
                                                         6.739673      -4.532415
                                                        34.417212     110.523457
                          1      13    4fy3              0.040000       0.000000
                                                         0.097098      -0.000799
                                                         0.283960       0.042127
                                                         0.806764       0.576468
                                                         2.441624       1.033755
                                                         6.739673      -2.026957
                                                        34.417212      49.427593
                          1      13    4fy2z             0.040000       0.000000
                                                         0.097098      -0.001786
                                                         0.283960       0.094199
                                                         0.806764       1.289022
                                                         2.441624       2.311546
                                                         6.739673      -4.532415
                                                        34.417212     110.523457
                          1      13    4fyz2             0.040000       0.000000
                                                         0.097098      -0.001786
                                                         0.283960       0.094199
                                                         0.806764       1.289022
                                                         2.441624       2.311546
                                                         6.739673      -4.532415
                                                        34.417212     110.523457
                          1      13    4fz3              0.040000       0.000000
                                                         0.097098      -0.000799
                                                         0.283960       0.042127
                                                         0.806764       0.576468
                                                         2.441624       1.033755
                                                         6.739673      -2.026957
                                                        34.417212      49.427593

                          1      14    5fx3              0.040000       0.000092
                                                         0.097098       0.001511
                                                         0.283960      -0.094589
                                                         0.806764       0.000869
                                                         2.441624       0.000000
                                                         6.739673       0.000000
                                                        34.417212       0.000000
                          1      14    5fx2y             0.040000       0.000206
                                                         0.097098       0.003380
                                                         0.283960      -0.211507
                                                         0.806764       0.001943
                                                         2.441624       0.000000
                                                         6.739673       0.000000
                                                        34.417212       0.000000
                          1      14    5fx2z             0.040000       0.000206
                                                         0.097098       0.003380
                                                         0.283960      -0.211507
                                                         0.806764       0.001943
                                                         2.441624       0.000000
                                                         6.739673       0.000000
                                                        34.417212       0.000000
                          1      14    5fxy2             0.040000       0.000206
                                                         0.097098       0.003380
                                                         0.283960      -0.211507
                                                         0.806764       0.001943
                                                         2.441624       0.000000
                                                         6.739673       0.000000
                                                        34.417212       0.000000
                          1      14    5fxyz             0.040000       0.000357
                                                         0.097098       0.005854
                                                         0.283960      -0.366341
                                                         0.806764       0.003365
                                                         2.441624       0.000000
                                                         6.739673       0.000000
                                                        34.417212       0.000000
                          1      14    5fxz2             0.040000       0.000206
                                                         0.097098       0.003380
                                                         0.283960      -0.211507
                                                         0.806764       0.001943
                                                         2.441624       0.000000
                                                         6.739673       0.000000
                                                        34.417212       0.000000
                          1      14    5fy3              0.040000       0.000092
                                                         0.097098       0.001511
                                                         0.283960      -0.094589
                                                         0.806764       0.000869
                                                         2.441624       0.000000
                                                         6.739673       0.000000
                                                        34.417212       0.000000
                          1      14    5fy2z             0.040000       0.000206
                                                         0.097098       0.003380
                                                         0.283960      -0.211507
                                                         0.806764       0.001943
                                                         2.441624       0.000000
                                                         6.739673       0.000000
                                                        34.417212       0.000000
                          1      14    5fyz2             0.040000       0.000206
                                                         0.097098       0.003380
                                                         0.283960      -0.211507
                                                         0.806764       0.001943
                                                         2.441624       0.000000
                                                         6.739673       0.000000
                                                        34.417212       0.000000
                          1      14    5fz3              0.040000       0.000092
                                                         0.097098       0.001511
                                                         0.283960      -0.094589
                                                         0.806764       0.000869
                                                         2.441624       0.000000
                                                         6.739673       0.000000
                                                        34.417212       0.000000

                          1      15    5gx4              0.040000       0.000014
                                                         0.097098       0.001608
                                                         0.283960       0.004604
                                                         0.806764      -0.003474
                                                         2.441624       0.000000
                                                         6.739673       0.000000
                                                        34.417212       0.000000
                          1      15    5gx3y             0.040000       0.000036
                                                         0.097098       0.004255
                                                         0.283960       0.012180
                                                         0.806764      -0.009191
                                                         2.441624       0.000000
                                                         6.739673       0.000000
                                                        34.417212       0.000000
                          1      15    5gx3z             0.040000       0.000036
                                                         0.097098       0.004255
                                                         0.283960       0.012180
                                                         0.806764      -0.009191
                                                         2.441624       0.000000
                                                         6.739673       0.000000
                                                        34.417212       0.000000
                          1      15    5gx2y2            0.040000       0.000046
                                                         0.097098       0.005493
                                                         0.283960       0.015725
                                                         0.806764      -0.011865
                                                         2.441624       0.000000
                                                         6.739673       0.000000
                                                        34.417212       0.000000
                          1      15    5gx2yz            0.040000       0.000080
                                                         0.097098       0.009514
                                                         0.283960       0.027236
                                                         0.806764      -0.020551
                                                         2.441624       0.000000
                                                         6.739673       0.000000
                                                        34.417212       0.000000
                          1      15    5gx2z2            0.040000       0.000046
                                                         0.097098       0.005493
                                                         0.283960       0.015725
                                                         0.806764      -0.011865
                                                         2.441624       0.000000
                                                         6.739673       0.000000
                                                        34.417212       0.000000
                          1      15    5gxy3             0.040000       0.000036
                                                         0.097098       0.004255
                                                         0.283960       0.012180
                                                         0.806764      -0.009191
                                                         2.441624       0.000000
                                                         6.739673       0.000000
                                                        34.417212       0.000000
                          1      15    5gxy2z            0.040000       0.000080
                                                         0.097098       0.009514
                                                         0.283960       0.027236
                                                         0.806764      -0.020551
                                                         2.441624       0.000000
                                                         6.739673       0.000000
                                                        34.417212       0.000000
                          1      15    5gxyz2            0.040000       0.000080
                                                         0.097098       0.009514
                                                         0.283960       0.027236
                                                         0.806764      -0.020551
                                                         2.441624       0.000000
                                                         6.739673       0.000000
                                                        34.417212       0.000000
                          1      15    5gxz3             0.040000       0.000036
                                                         0.097098       0.004255
                                                         0.283960       0.012180
                                                         0.806764      -0.009191
                                                         2.441624       0.000000
                                                         6.739673       0.000000
                                                        34.417212       0.000000
                          1      15    5gy4              0.040000       0.000014
                                                         0.097098       0.001608
                                                         0.283960       0.004604
                                                         0.806764      -0.003474
                                                         2.441624       0.000000
                                                         6.739673       0.000000
                                                        34.417212       0.000000
                          1      15    5gy3z             0.040000       0.000036
                                                         0.097098       0.004255
                                                         0.283960       0.012180
                                                         0.806764      -0.009191
                                                         2.441624       0.000000
                                                         6.739673       0.000000
                                                        34.417212       0.000000
                          1      15    5gy2z2            0.040000       0.000046
                                                         0.097098       0.005493
                                                         0.283960       0.015725
                                                         0.806764      -0.011865
                                                         2.441624       0.000000
                                                         6.739673       0.000000
                                                        34.417212       0.000000
                          1      15    5gyz3             0.040000       0.000036
                                                         0.097098       0.004255
                                                         0.283960       0.012180
                                                         0.806764      -0.009191
                                                         2.441624       0.000000
                                                         6.739673       0.000000
                                                        34.417212       0.000000
                          1      15    5gz4              0.040000       0.000014
                                                         0.097098       0.001608
                                                         0.283960       0.004604
                                                         0.806764      -0.003474
                                                         2.441624       0.000000
                                                         6.739673       0.000000
                                                        34.417212       0.000000

                          2       1    1s            13575.369584       0.323227
                                                      2035.237517       2.062509
                                                       463.111112       2.210797
                                                       131.318553       4.954487
                                                        42.899593       1.730189
                                                        15.855102       4.257999

     RI Auxiliary Basis Set             RI_aug-TZVP-MOLOPT-ae_N_RI_073_s_p_d_f_g

       Number of orbital shell sets:                                          19
       Number of orbital shells:                                              19
       Number of primitive Cartesian functions:                               19
       Number of Cartesian basis functions:                                   97
       Number of spherical basis functions:                                   73
       Norm type:                                                              2

       Normalised Cartesian orbitals:

                        Set   Shell   Orbital            Exponent    Coefficient

                          1       1    1s                0.091816       0.118877

                          2       1    2s                0.287175       0.279589

                          3       1    8px               0.391455       0.441359
                          3       1    8py               0.391455       0.441359
                          3       1    8pz               0.391455       0.441359

                          4       1   12dx2              0.453199       0.412017
                          4       1   12dxy              0.453199       0.713635
                          4       1   12dxz              0.453199       0.713635
                          4       1   12dy2              0.453199       0.412017
                          4       1   12dyz              0.453199       0.713635
                          4       1   12dz2              0.453199       0.412017

                          5       1   15fx3              0.493596       0.300635
                          5       1   15fx2y             0.493596       0.672241
                          5       1   15fx2z             0.493596       0.672241
                          5       1   15fxy2             0.493596       0.672241
                          5       1   15fxyz             0.493596       1.164356
                          5       1   15fxz2             0.493596       0.672241
                          5       1   15fy3              0.493596       0.300635
                          5       1   15fy2z             0.493596       0.672241
                          5       1   15fyz2             0.493596       0.672241
                          5       1   15fz3              0.493596       0.300635

                          6       1   18gx4              0.552678       0.217888
                          6       1   18gx3y             0.552678       0.576478
                          6       1   18gx3z             0.552678       0.576478
                          6       1   18gx2y2            0.552678       0.744230
                          6       1   18gx2yz            0.552678       1.289044
                          6       1   18gx2z2            0.552678       0.744230
                          6       1   18gxy3             0.552678       0.576478
                          6       1   18gxy2z            0.552678       1.289044
                          6       1   18gxyz2            0.552678       1.289044
                          6       1   18gxz3             0.552678       0.576478
                          6       1   18gy4              0.552678       0.217888
                          6       1   18gy3z             0.552678       0.576478
                          6       1   18gy2z2            0.552678       0.744230
                          6       1   18gyz3             0.552678       0.576478
                          6       1   18gz4              0.552678       0.217888

                          7       1    9px               0.792647       1.066080
                          7       1    9py               0.792647       1.066080
                          7       1    9pz               0.792647       1.066080

                          8       1    3s                0.811053       0.609112

                          9       1   13dx2              1.050831       1.795115
                          9       1   13dxy              1.050831       3.109231
                          9       1   13dxz              1.050831       3.109231
                          9       1   13dy2              1.050831       1.795115
                          9       1   13dyz              1.050831       3.109231
                          9       1   13dz2              1.050831       1.795115

                         10       1   16fx3              1.094417       1.803497
                         10       1   16fx2y             1.094417       4.032742
                         10       1   16fx2z             1.094417       4.032742
                         10       1   16fxy2             1.094417       4.032742
                         10       1   16fxyz             1.094417       6.984914
                         10       1   16fxz2             1.094417       4.032742
                         10       1   16fy3              1.094417       1.803497
                         10       1   16fy2z             1.094417       4.032742
                         10       1   16fyz2             1.094417       4.032742
                         10       1   16fz3              1.094417       1.803497

                         11       1   19gx4              1.617251       4.174201
                         11       1   19gx3y             1.617251      11.043898
                         11       1   19gx3z             1.617251      11.043898
                         11       1   19gx2y2            1.617251      14.257611
                         11       1   19gx2yz            1.617251      24.694907
                         11       1   19gx2z2            1.617251      14.257611
                         11       1   19gxy3             1.617251      11.043898
                         11       1   19gxy2z            1.617251      24.694907
                         11       1   19gxyz2            1.617251      24.694907
                         11       1   19gxz3             1.617251      11.043898
                         11       1   19gy4              1.617251       4.174201
                         11       1   19gy3z             1.617251      11.043898
                         11       1   19gy2z2            1.617251      14.257611
                         11       1   19gyz3             1.617251      11.043898
                         11       1   19gz4              1.617251       4.174201

                         12       1   17fx3              2.247970       9.109259
                         12       1   17fx2y             2.247970      20.368923
                         12       1   17fx2z             2.247970      20.368923
                         12       1   17fxy2             2.247970      20.368923
                         12       1   17fxyz             2.247970      35.280010
                         12       1   17fxz2             2.247970      20.368923
                         12       1   17fy3              2.247970       9.109259
                         12       1   17fy2z             2.247970      20.368923
                         12       1   17fyz2             2.247970      20.368923
                         12       1   17fz3              2.247970       9.109259

                         13       1    4s                2.631051       1.472336

                         14       1   10px               2.735736       5.015136
                         14       1   10py               2.735736       5.015136
                         14       1   10pz               2.735736       5.015136

                         15       1   14dx2              3.531424      14.973444
                         15       1   14dxy              3.531424      25.934767
                         15       1   14dxz              3.531424      25.934767
                         15       1   14dy2              3.531424      14.973444
                         15       1   14dyz              3.531424      25.934767
                         15       1   14dz2              3.531424      14.973444

                         16       1    5s                8.634213       3.589857

                         17       1   11px              14.132879      39.059653
                         17       1   11py              14.132879      39.059653
                         17       1   11pz              14.132879      39.059653

                         18       1    6s               27.135268       8.473458

                         19       1    7s               81.848125      19.393967

       Atomic covalent radius [Angstrom]:                                  0.770

       Atomic van der Waals radius [Angstrom]:                             1.700

     The atoms of this atomic kind are PAW atoms (GAPW):
       Hard Gaussian function radius:                                      1.512
       Rho0 radius:                                                        1.512
       Maximum GTO radius used for PAW projector construction:            24.566

     GAPW Soft Basis Set                                 aug-TZVP-MOLOPT-ae_soft

       Number of orbital shell sets:                                           2
       Number of orbital shells:                                              16
       Number of primitive Cartesian functions:                                5
       Number of Cartesian basis functions:                                   71
       Number of spherical basis functions:                                   56
       Norm type:                                                              2

       Normalised Cartesian orbitals:

                        Set   Shell   Orbital            Exponent    Coefficient

                          1       1    1s                0.040000       0.000000
                                                         0.097098       0.019281
                                                         0.283960       0.027513
                                                         0.806764       0.003692
                                                         2.441624       0.446183

                          1       2    2s                0.040000       0.000000
                                                         0.097098       0.029117
                                                         0.283960       0.094997
                                                         0.806764       0.362633
                                                         2.441624      -0.104551

                          1       3    3s                0.040000       0.000000
                                                         0.097098       0.047046
                                                         0.283960       0.169545
                                                         0.806764      -0.252838
                                                         2.441624      -0.199197

                          1       4    4s                0.040000       0.000000
                                                         0.097098       0.188374
                                                         0.283960      -0.341415
                                                         0.806764       0.091223
                                                         2.441624      -0.053941

                          1       5    5s                0.040000       0.099533
                                                         0.097098      -0.167672
                                                         0.283960      -0.126383
                                                         0.806764       0.030074
                                                         2.441624       0.000000

                          1       6    2px               0.040000       0.000000
                                                         0.097098       0.005087
                                                         0.283960       0.032186
                                                         0.806764       0.779023
                                                         2.441624       0.695625
                          1       6    2py               0.040000       0.000000
                                                         0.097098       0.005087
                                                         0.283960       0.032186
                                                         0.806764       0.779023
                                                         2.441624       0.695625
                          1       6    2pz               0.040000       0.000000
                                                         0.097098       0.005087
                                                         0.283960       0.032186
                                                         0.806764       0.779023
                                                         2.441624       0.695625

                          1       7    3px               0.040000       0.000000
                                                         0.097098       0.008084
                                                         0.283960       0.294367
                                                         0.806764      -0.188640
                                                         2.441624       0.912249
                          1       7    3py               0.040000       0.000000
                                                         0.097098       0.008084
                                                         0.283960       0.294367
                                                         0.806764      -0.188640
                                                         2.441624       0.912249
                          1       7    3pz               0.040000       0.000000
                                                         0.097098       0.008084
                                                         0.283960       0.294367
                                                         0.806764      -0.188640
                                                         2.441624       0.912249

                          1       8    4px               0.040000       0.000000
                                                         0.097098       0.081068
                                                         0.283960      -0.017243
                                                         0.806764      -0.070055
                                                         2.441624      -0.855991
                          1       8    4py               0.040000       0.000000
                                                         0.097098       0.081068
                                                         0.283960      -0.017243
                                                         0.806764      -0.070055
                                                         2.441624      -0.855991
                          1       8    4pz               0.040000       0.000000
                                                         0.097098       0.081068
                                                         0.283960      -0.017243
                                                         0.806764      -0.070055
                                                         2.441624      -0.855991

                          1       9    5px               0.040000       0.032085
                                                         0.097098      -0.027366
                                                         0.283960      -0.100343
                                                         0.806764      -0.020266
                                                         2.441624       0.000000
                          1       9    5py               0.040000       0.032085
                                                         0.097098      -0.027366
                                                         0.283960      -0.100343
                                                         0.806764      -0.020266
                                                         2.441624       0.000000
                          1       9    5pz               0.040000       0.032085
                                                         0.097098      -0.027366
                                                         0.283960      -0.100343
                                                         0.806764      -0.020266
                                                         2.441624       0.000000

                          1      10    3dx2              0.040000       0.000000
                                                         0.097098       0.001415
                                                         0.283960       0.015501
                                                         0.806764       0.546922
                                                         2.441624       3.763414
                          1      10    3dxy              0.040000       0.000000
                                                         0.097098       0.002451
                                                         0.283960       0.026849
                                                         0.806764       0.947296
                                                         2.441624       6.518424
                          1      10    3dxz              0.040000       0.000000
                                                         0.097098       0.002451
                                                         0.283960       0.026849
                                                         0.806764       0.947296
                                                         2.441624       6.518424
                          1      10    3dy2              0.040000       0.000000
                                                         0.097098       0.001415
                                                         0.283960       0.015501
                                                         0.806764       0.546922
                                                         2.441624       3.763414
                          1      10    3dyz              0.040000       0.000000
                                                         0.097098       0.002451
                                                         0.283960       0.026849
                                                         0.806764       0.947296
                                                         2.441624       6.518424
                          1      10    3dz2              0.040000       0.000000
                                                         0.097098       0.001415
                                                         0.283960       0.015501
                                                         0.806764       0.546922
                                                         2.441624       3.763414

                          1      11    4dx2              0.040000       0.000000
                                                         0.097098       0.001225
                                                         0.283960       0.139703
                                                         0.806764       0.323683
                                                         2.441624      -2.510108
                          1      11    4dxy              0.040000       0.000000
                                                         0.097098       0.002122
                                                         0.283960       0.241972
                                                         0.806764       0.560636
                                                         2.441624      -4.347634
                          1      11    4dxz              0.040000       0.000000
                                                         0.097098       0.002122
                                                         0.283960       0.241972
                                                         0.806764       0.560636
                                                         2.441624      -4.347634
                          1      11    4dy2              0.040000       0.000000
                                                         0.097098       0.001225
                                                         0.283960       0.139703
                                                         0.806764       0.323683
                                                         2.441624      -2.510108
                          1      11    4dyz              0.040000       0.000000
                                                         0.097098       0.002122
                                                         0.283960       0.241972
                                                         0.806764       0.560636
                                                         2.441624      -4.347634
                          1      11    4dz2              0.040000       0.000000
                                                         0.097098       0.001225
                                                         0.283960       0.139703
                                                         0.806764       0.323683
                                                         2.441624      -2.510108

                          1      12    5dx2              0.040000       0.006049
                                                         0.097098      -0.003128
                                                         0.283960       0.033814
                                                         0.806764       0.003338
                                                         2.441624       0.000000
                          1      12    5dxy              0.040000       0.010477
                                                         0.097098      -0.005418
                                                         0.283960       0.058567
                                                         0.806764       0.005781
                                                         2.441624       0.000000
                          1      12    5dxz              0.040000       0.010477
                                                         0.097098      -0.005418
                                                         0.283960       0.058567
                                                         0.806764       0.005781
                                                         2.441624       0.000000
                          1      12    5dy2              0.040000       0.006049
                                                         0.097098      -0.003128
                                                         0.283960       0.033814
                                                         0.806764       0.003338
                                                         2.441624       0.000000
                          1      12    5dyz              0.040000       0.010477
                                                         0.097098      -0.005418
                                                         0.283960       0.058567
                                                         0.806764       0.005781
                                                         2.441624       0.000000
                          1      12    5dz2              0.040000       0.006049
                                                         0.097098      -0.003128
                                                         0.283960       0.033814
[...]
 -                           R E F E R E N C E S                               -
 -                                                                             -
 -------------------------------------------------------------------------------
 
 CP2K version 2025.1 (Development Version), the CP2K developers group (2025).
 CP2K is freely available from https://www.cp2k.org/ .
 
 T. D. Kuehne, M. Iannuzzi, M. Del Ben, V. V. Rybkin, P. Seewald, F. Stein, T. 
 Laino, R. Z. Khaliullin, O. Schuett, F. Schiffmann, D. Golze, J. Wilhelm, S. 
 Chulkov, M. H. Bani-Hashemian, V. Weber, U. Borstnik, M. Taillefumier, A. S. 
 Jakobovits, A. Lazzaro, H. Pabst, T. Mueller, R. Schade, M. Guidon, S. 
 Andermatt, N. Holmberg, G. K. Schenter, A. Hehn, A. Bussy, F. Belleflamme, G. 
 Tabacchi, A. Gloess, M. Lass, I. Bethune, C. J. Mundy, C. Plessl, M. Watkins, 
 J. VandeVondele, M. Krack, J. Hutter.
 J. Chem. Phys. 152, 194103 (2020).
 CP2K: An electronic structure and molecular dynamics software package - 
 Quickstep: Efficient and accurate electronic structure calculations.
 https://doi.org/10.1063/5.0007045

 J. Wilhelm, D. Golze, L. Talirz, J. Hutter, C. A. Pignedoli.
 J. Phys. Chem. Lett. 9, 306-312 (2018).
 Toward GW calculations on thousands of atoms.
 https://doi.org/10.1021/acs.jpclett.7b02740

 J. Wilhelm, J. Hutter.
 Phys. Rev. B 95, 235123 (2017).
 Periodic GW calculations in the Gaussian and plane-waves scheme.
 https://doi.org/10.1103/PhysRevB.95.235123

 O. Schuett, P. Messmer, J. Hutter, J. VandeVondele.
 Electronic Structure Calculations on Graphics Processing Units, 173-190 (2016).
 GPU-Accelerated Sparse Matrix-Matrix Multiplication for Linear Scaling Density 
 Functional Theory.
 https://doi.org/10.1002/9781118670712.ch8

 J. Wilhelm, M. Del Ben, J. Hutter.
 J. Chem. Theory Comput. 12, 3623-3635 (2016).
 GW in the Gaussian and plane waves scheme with application to linear acenes.
 https://doi.org/10.1021/acs.jctc.6b00380

 M. Del Ben, O. Schuett, T. Wentz, P. Messmer, J. Hutter, J. VandeVondele.
 Comput. Phys. Commun. 187, 120-129 (2015).
 Enabling simulation at the fifth rung of DFT: Large scale RPA calculations with 
 excellent time to solution.
 https://doi.org/10.1016/j.cpc.2014.10.021

 J. Hutter, M. Iannuzzi, F. Schiffmann, J. VandeVondele.
 WIREs Comput Mol Sci. 4, 15-25 (2014).
 CP2K: atomistic simulations of condensed matter systems.
 https://doi.org/10.1002/wcms.1159

 U. Borstnik, J. VandeVondele, V. Weber, J. Hutter.
 Parallel Comput. 40, 47-58 (2014).
 Sparse matrix multiplication: The distributed block-compressed sparse row 
 library.
 https://doi.org/10.1016/j.parco.2014.03.012

 M. Del Ben, J. Hutter, J. VandeVondele.
 J. Chem. Theory Comput. 9, 2654-2671 (2013).
 Electron Correlation in the Condensed Phase from a Resolution of Identity 
 Approach Based on the Gaussian and Plane Waves Scheme.
 https://doi.org/10.1021/ct4002202

 M. Del Ben, J. Hutter, J. VandeVondele.
 J. Chem. Theory Comput. 8, 4177-4188 (2012).
 Second-Order Moller-Plesset Perturbation Theory in the Condensed Phase: An 
 Efficient and Massively Parallel Gaussian and Plane Waves Approach.
 https://doi.org/10.1021/ct300531w

 M. Guidon, J. Hutter, J. VandeVondele.
 J. Chem. Theory Comput. 5, 3010-3021 (2009).
 Robust Periodic Hartree-Fock Exchange for Large-Scale Simulations Using 
 Gaussian Basis Sets.
 https://doi.org/10.1021/ct900494g

 M. Guidon, F. Schiffmann, J. Hutter, J. VandeVondele.
 J. Chem. Phys. 128, 214104 (2008).
 Ab initio molecular dynamics using hybrid density functionals.
 https://doi.org/10.1063/1.2931945

 L. Genovese, T. Deutsch, S. Goedecker.
 J. Chem. Phys. 127, 054704 (2007).
 Efficient and accurate three-dimensional Poisson solver for surface problems.
 https://doi.org/10.1063/1.2754685

 J. VandeVondele, J. Hutter.
 J. Chem. Phys. 127, 114105 (2007).
 Gaussian basis sets for accurate calculations on molecular systems in gas and 
 condensed phases.
 https://doi.org/10.1063/1.2770708

 L. Genovese, T. Deutsch, A. Neelov, S. Goedecker, G. Beylkin.
 J. Chem. Phys. 125, 074105 (2006).
 Efficient solution of Poisson's equation with free boundary conditions.
 https://doi.org/10.1063/1.2335442

 M. Frigo, S. G. Johnson.
 Proc. IEEE 93, 216-231 (2005).
 The design and implementation of FFTW3.
 https://doi.org/10.1109/JPROC.2004.840301

 M. Krack, M. Parrinello.
 Phys. Chem. Chem. Phys. 2, 2105-2112 (2000).
 All-electron ab-initio molecular dynamics.
 https://doi.org/10.1039/b001167n

 G. Lippert, J. Hutter, M. Parrinello.
 Theor. Chem. Acc. 103, 124-140 (1999).
 The Gaussian and augmented-plane-wave density functional method for ab initio 
 molecular dynamics simulations.
 https://doi.org/10.1007/s002140050523

 J. P. Perdew, K. Burke, M. Ernzerhof.
 Phys. Rev. Lett. 77, 3865-3868 (1996).
 Generalized gradient approximation made simple.
 https://doi.org/10.1103/PhysRevLett.77.3865


 -------------------------------------------------------------------------------
 -                                                                             -
 -                                T I M I N G                                  -
 -                                                                             -
 -------------------------------------------------------------------------------
 SUBROUTINE                       CALLS  ASD         SELF TIME        TOTAL TIME
                                MAXIMUM       AVERAGE  MAXIMUM  AVERAGE  MAXIMUM
 CP2K                                 1  1.0    0.035    0.060  762.915  762.915
 qs_energies                          1  2.0    0.001    0.001  762.069  762.243
 scf_env_do_scf                       1  3.0    0.000    0.000  744.982  744.985
 scf_env_do_scf_inner_loop           52  4.0    0.001    0.003  744.982  744.985
 qs_ks_build_kohn_sham_matrix        53  7.0    0.008    0.010  708.014  708.039
 qs_ks_update_qs_env                 52  5.0    0.000    0.000  706.318  706.343
 rebuild_ks_matrix                   52  6.0    0.000    0.000  706.313  706.338
 hfx_ks_matrix                       53  8.0    0.002    0.003  576.699  576.737
 integrate_four_center               53  9.0    3.301    4.682  576.695  576.733
 integrate_four_center_main          53 10.0    9.492  367.351   54.708  524.409
 mp_sync                            683  9.3  469.152  520.637  469.152  520.637
 integrate_four_center_bin         3791 11.0   45.216  492.474   45.216  492.474
 fft_wrap_pw1pw2                   1104  9.9    0.025    0.033   62.805   64.245
 fft_wrap_pw1pw2_250                786 11.1    2.682    3.014   60.780   61.986
 fft3d_ps                          1104 11.9   24.766   27.591   50.649   52.014
 calc_screening_functions             1 10.0   45.534   48.869   45.729   49.064
 pw_poisson_solve                    53  8.0    0.942    1.031   46.412   46.427
 qs_vxc_create                       53  8.0    0.001    0.001   36.690   36.691
 xc_vxc_pw_create                    52  9.0    0.644    0.723   36.689   36.690
 ps_wavelet_solve                    53  9.0   23.814   27.015   30.523   30.738
 xc_pw_derive                       312 11.0    0.003    0.004   27.289   28.399
 mp_alltoall_d54                     53 10.0    4.430   23.783    4.430   23.783
 mp_alltoall_z22v                  1104 13.9   19.912   22.761   19.912   22.761
 qs_rho_update_rho_low               53  5.0    0.001    0.001   20.193   20.194
 calculate_rho_elec                  53  6.0    0.518    0.553   19.894   19.895
 xc_pw_divergence                    52 10.0    0.002    0.002   18.543   19.695
 prepare_gapw_den                    53  8.0    0.001    0.001   19.308   19.467
 xc_rho_set_and_dset_create          52 10.0    0.452    0.593   17.151   18.346
 gspace_mixing                       51  5.0    0.498    0.532   17.760   17.761
 mp2_main                             1  3.0    0.000    0.000   15.713   15.888
 yz_to_x                            527 12.8    1.751    2.143   12.241   14.699
 density_rs2pw                       53  7.0    0.003    0.004   13.825   14.271
 x_to_yz                            577 13.1    4.202    4.521   13.624   14.195
 mp2_gpw_main                         1  4.0    0.000    0.000   13.797   13.807
 broyden_mixing                      51  6.0   13.065   13.296   13.280   13.355
 rpa_ri_compute_en                    1  5.0    0.000    0.000   12.338   12.338
 rpa_num_int                          1  6.0    0.001    0.001   12.298   12.298
 sum_up_and_integrate                53  8.0    0.001    0.001   11.535   11.569
 integrate_v_rspace                  53  9.0    0.001    0.002   11.385   11.426
 compute_GW_self_energy             100  7.0    0.001    0.002   11.310   11.394
 compute_GW_self_energy_deep        100  8.0    9.295    9.378   11.186   11.270
 calculate_rho_atom                 106  9.0    0.961   11.217    0.961   11.217
 mp_sum_dv                         8929  9.8   10.438   10.977   10.438   10.977
 mp_sum_d                          4267  6.6    9.728   10.811    9.728   10.811
 potential_pw2rs                     53 10.0    0.027    0.030   10.471   10.524
 calculate_vxc_atom                  53  8.0    0.030    0.239    8.001    8.002
 transfer_pw2rs                     266 10.5    0.004    0.005    7.704    7.905
 put_rho0_on_grid                    53  9.0    0.524    0.569    7.743    7.901
 gaVxcgb_GC                          52  9.0    0.353    7.712    0.353    7.712
 transfer_rs2pw                     266  8.4    0.006    0.009    6.801    7.146
 mp_waitany                        7040 11.5    6.051    6.631    6.051    6.631
 grid_collocate_task_list            53  7.0    5.320    5.609    5.320    5.609
 mp_alltoall_d11v                  1040  9.5    2.834    5.355    2.834    5.355
 transfer_pw2rs_250                 107 10.9    1.584    1.775    4.969    5.251
 transfer_rs2pw_250                 107 10.0    1.767    1.950    4.652    4.982
 mp_sum_l                           871  5.9    3.361    4.783    3.361    4.783
 integrate_four_center_load          53 10.0    0.000    0.001    3.340    4.764
 hfx_load_balance                     1 11.0    0.000    0.000    3.340    4.763
 hfx_load_balance_range               1 12.0    0.000    0.000    3.335    4.758
 mp_alltoall_d45                     54 10.0    2.172    4.322    2.172    4.322
 pw_scatter_p                       577 12.1    4.120    4.224    4.120    4.224
 xc_functional_eval                 156 10.8    0.001    0.001    3.119    4.091
 pbe_lda_eval                       156 11.8    3.119    4.090    3.119    4.090
 pw_gather_p                        527 11.8    3.478    4.006    3.478    4.006
 integrate_vhg0_rspace               53  8.0    0.144    0.164    3.584    3.659
 pw_derive                          471 11.3    3.049    3.263    3.049    3.263
 parallel_gemm_fm                   324  8.7    0.001    0.001    2.130    2.176
 parallel_gemm_fm_gemm              324  9.7    0.001    0.001    2.129    2.176
 cp_fm_gemm                         324 10.7    2.128    2.175    2.128    2.175
 cp2k_distribution_to_z_slices       53  9.0    0.992    1.088    1.919    2.049
 pw_copy                            790 10.6    1.790    1.910    1.790    1.910
 fft_wrap_pw1pw2_90                 106 10.5    0.079    0.105    1.617    1.875
 compute_vec_Sigma_x_minus_vxc_       1  4.0    0.000    0.000    1.705    1.705
 pw_poisson_set                      54  8.9    0.002    0.002    1.682    1.697
 transfer_pw2rs_90                   53 12.0    0.330    0.381    1.230    1.559
 rs_grid_zero                       267 11.1    1.497    1.553    1.497    1.553
 mp_waitall_1                     16882 12.1    0.940    1.500    0.940    1.500
 mp2_ri_gpw_compute_in                1  5.0    0.001    0.001    1.442    1.442
 mp2_ri_gpw_compute_in_loop           1  6.0    0.000    0.000    1.435    1.435
 cp_fm_syevd                         58  6.9    0.000    0.001    1.387    1.394
 cp_fm_redistribute_end              58  7.9    0.681    1.336    0.684    1.338
 contract_B_L                         4  7.0    0.003    0.003    0.994    1.320
 cp_fm_syevd_base                    58  7.9    0.652    1.306    0.652    1.306
 mp2_eri_3c_integrate                 1  7.0    0.001    0.001    0.394    1.245
 pw_axpy                            525  9.3    1.164    1.244    1.164    1.244
 integrate_set_3c                   148  8.0    0.365    1.169    0.393    1.244
 transfer_pw2rs_30                   53 12.0    0.722    0.799    1.111    1.234
 mp_cart_create                     337 10.6    0.880    1.207    0.881    1.208
 mp_sum_dm                         1011  7.6    0.836    1.200    0.836    1.200
 dbt_pgrid_create_expert             84 10.8    0.000    0.000    0.862    1.188
 qs_scf_new_mos                      52  5.0    0.001    0.001    1.171    1.182
 pw_copy_to_array                   527 11.8    1.057    1.181    1.057    1.181
 pw_poisson_rebuild                  53  9.0    0.000    0.000    1.149    1.176
 ps_wavelet_create                    1 10.0    0.000    0.000    1.149    1.176
 RS_z_slice_distribution              1 11.0    0.994    1.081    1.149    1.176
 Vh_1c_gg_integrals                  53  8.0    0.049    0.959    0.999    1.110
 transfer_rs2pw_90                   53  9.0    0.304    0.331    1.025    1.079
 pw_integral_ab_c1d_c1d_gs           53  9.0    0.778    0.787    0.887    0.978
 eigensolver_symm                    53  6.0    0.002    0.002    0.931    0.933
 rs_gather_matrices                  53 10.0    0.001    0.007    0.735    0.928
 grid_integrate_task_list            53 10.0    0.177    0.893    0.177    0.893
 transfer_rs2pw_30                   53  9.0    0.414    0.442    0.849    0.873
 pw_copy_from_array                 577 12.1    0.700    0.857    0.700    0.857
 init_scf_run                         1  3.0    0.000    0.000    0.658    0.659
 mp_sendrecv_dv                    4982 10.0    0.618    0.653    0.618    0.653
 start_bse_calculation                1  7.0    0.000    0.000    0.638    0.638
 scf_env_initial_rho_setup            1  4.0    0.000    0.000    0.637    0.637
 mp_isend_dv                       7327 12.0    0.349    0.619    0.349    0.619
 qs_energies_init_hamiltonians        1  3.0    0.000    0.000    0.597    0.597
 build_core_hamiltonian_matrix        1  4.0    0.000    0.000    0.593    0.593
 overlap_condnum                      1  5.0    0.000    0.001    0.585    0.590
 pw_zero                            314 10.3    0.504    0.550    0.504    0.550
 arnoldi_conjugate_gradient           5  6.0    0.014    0.017    0.528    0.528
 mp_irecv_dm3                      1920 11.5    0.267    0.484    0.267    0.484
 qs_init_subsys                       1  2.0    0.005    0.005    0.482    0.483
 qs_env_setup                         1  3.0    0.000    0.000    0.454    0.459
 qs_env_rebuild_pw_env                2  3.5    0.000    0.000    0.452    0.458
 pw_env_rebuild                       1  5.0    0.001    0.001    0.452    0.458
 pw_grid_setup                        4  6.0    0.000    0.000    0.430    0.435
 pw_grid_setup_internal               4  7.0    0.011    0.013    0.430    0.435
 transfer_pw2rs_10                   53 12.0    0.182    0.196    0.390    0.424
 mp_isend_dm3                      1920 11.5    0.182    0.420    0.182    0.420
 integrate_four_center_getP          53 10.0    0.007    0.008    0.316    0.407
 calc_pair_dist_radii                 1 10.0    0.243    0.245    0.374    0.379
 mp_isendrecv_dv                   9964 12.0    0.182    0.375    0.182    0.375
 calculate_rho0_atom                106  9.0    0.296    0.347    0.296    0.347
 mp2_main_alloc_hfx                   1  4.0    0.165    0.339    0.165    0.339
 mp_sum_i                            19  9.5    0.175    0.339    0.175    0.339
 restraint_control                    1  2.0    0.000    0.000    0.175    0.338
 powell_optimize                 129209 11.0    0.326    0.334    0.326    0.334
 pw_grid_sort                         4  8.0    0.224    0.227    0.319    0.324
 dbcsr_sym_matrix_vector_mult      2055  7.0    0.033    0.035    0.291    0.322
 fft_wrap_pw1pw2_30                 106 10.5    0.013    0.015    0.309    0.322
 create_hermitian_form_of_ABBA        1  8.0    0.000    0.000    0.301    0.303
 mp_max_i                           566  2.7    0.199    0.301    0.199    0.301
 calculate_rho_atom_coeff            53  6.0    0.047    0.081    0.298    0.298
 update_ks_atom                      53  8.0    0.031    0.055    0.259    0.298
 cp_fm_power                          2  7.5    0.004    0.006    0.294    0.296
 diagonalize_C                        1  8.0    0.000    0.000    0.286    0.287
 scale_and_distribute               106 10.0    0.262    0.280    0.262    0.280
 transfer_rs2pw_10                   53  9.0    0.086    0.092    0.270    0.277
 rpa_num_int_RPA_matrix_operati     100  7.0    0.001    0.003    0.258    0.259
 mp_bcast_dm                        636  9.0    0.228    0.251    0.228    0.251
 dbcsr_add_d                       3120  7.0    0.003    0.003    0.033    0.184
 calc_mat_Q                         100  8.0    0.000    0.000    0.178    0.184
 dbcsr_add_anytype                 3120  8.0    0.004    0.024    0.030    0.181
 contract_S_to_Q                    100  9.0    0.001    0.001    0.167    0.172
 pw_scale                           209  9.5    0.130    0.167    0.130    0.167
 mixing_init                          1  5.0    0.146    0.149    0.150    0.150
 copy_dbcsr_to_fm                    83  6.7    0.002    0.002    0.136    0.145
 calculate_dm_sparse                 52  6.0    0.000    0.000    0.140    0.144
 cp_dbcsr_plus_fm_fm_t               52  7.0    0.001    0.001    0.139    0.143
 dbcsr_multiply_generic              97  8.1    0.004    0.005    0.123    0.127
 dbcsr_finalize                    4148 10.4    0.008    0.041    0.027    0.120
 scf_post_calculation_gpw             1  3.0    0.000    0.000    0.117    0.118
 write_available_results              1  4.0    0.000    0.000    0.117    0.118
 write_mo_free_results                1  5.0    0.012    0.014    0.117    0.118
 dbcsr_col_vec_to_rep_row          2055  8.0    0.015    0.016    0.088    0.117
 cp_fm_cholesky_invert              101  8.0    0.111    0.116    0.111    0.116
 dbt_total                            8  8.0    0.000    0.000    0.115    0.115
 dbcsr_complete_redistribute        191  8.5    0.011    0.013    0.109    0.112
 offload_free_buffer                 61  8.2    0.036    0.111    0.036    0.111
 integrate_four_center_dist_KS       53 10.0    0.007    0.007    0.110    0.110
 sort_shells                          4  9.0    0.095    0.099    0.095    0.099
 dbt_contract                         4  9.0    0.001    0.001    0.098    0.099
 create_qs_kind_set                   1  2.0    0.000    0.000    0.091    0.092
 read_qs_kind                         2  3.0    0.036    0.039    0.091    0.092
 dbcsr_rep_row_to_rep_col_vec      2055  8.0    0.011    0.012    0.054    0.087
 fft_wrap_pw1pw2_10                 106 10.5    0.003    0.003    0.074    0.087
 dbcsr_desymmetrize_deep             85  7.6    0.003    0.003    0.077    0.087
 mp_bcast_dv                       2113  9.0    0.049    0.080    0.049    0.080
 -------------------------------------------------------------------------------

 The number of warnings for this run is : 1
 
 -------------------------------------------------------------------------------
  **** **** ******  **  PROGRAM ENDED AT                 2025-03-26 07:10:56.326
 ***** ** ***  *** **   PROGRAM RAN ON                              i01r04c01s05
 **    ****   ******    PROGRAM RAN BY                                   di38fab
 ***** **    ** ** **   PROGRAM PROCESS ID                               2858689
  **** **  *******  **  PROGRAM STOPPED IN /hppfs/scratch/04/di38fab/05_MOL/W4-1
                                           1+ALK/c2h4/TZVP/GW+BSE/1e-4
