 DBCSR| CPU Multiplication driver                                           BLAS (U)
 DBCSR| Multrec recursion limit                                              512 (U)
 DBCSR| Multiplication stack size                                           1000 (D)
 DBCSR| Maximum elements for images                                    UNLIMITED (U)
 DBCSR| Multiplicative factor virtual images                                   1 (U)
 DBCSR| Use multiplication densification                                       T (D)
 DBCSR| Multiplication size stacks                                             3 (U)
 DBCSR| Use memory pool for CPU allocation                                     F (U)
 DBCSR| Number of 3D layers                                               SINGLE (U)
 DBCSR| Use MPI memory allocation                                              F (U)
 DBCSR| Use RMA algorithm                                                      F (U)
 DBCSR| Use Communication thread                                               T (U)
 DBCSR| Communication thread load                                             75 (D)
 DBCSR| MPI: My process id                                                     0
 DBCSR| MPI: Number of processes                                              96
 DBCSR| OMP: Current number of threads                                         4
 DBCSR| OMP: Max number of threads                                             4
 DBCSR| Split modifier for TAS multiplication algorithm                  1.0E+00 (U)


  **** **** ******  **  PROGRAM STARTED AT               2025-04-23 18:34:22.750
 ***** ** ***  *** **   PROGRAM STARTED ON                          i03r11c03s02
 **    ****   ******    PROGRAM STARTED BY                               di38fab
 ***** **    ** ** **   PROGRAM PROCESS ID                                725121
  **** **  *******  **  PROGRAM STARTED IN /hppfs/scratch/04/di38fab/07_MOL_non_
                                           aug/05_MOL_non_aug/05_MOL/W4-11+ALK/b
                                           eo/SZV/TDDFT

 CP2K| version string:                 CP2K version 2025.1 (Development Version)
 CP2K| source code revision number:                             unknown revision
 CP2K| cp2kflags: omp libint fftw3 libxc parallel scalapack max_contr=4         
 CP2K| is freely available from                            https://www.cp2k.org/
 CP2K| Program compiled at                         Thu Apr 10 16:20:23 CEST 2025
 CP2K| Program compiled on                                               login01
 CP2K| Program compiled for                                        Supermuc-foss
 CP2K| Data directory path                  /hppfs/work/pn36zo/di38fab/cp2k/data
 CP2K| Input file name                                                    GW.inp

 GLOBAL| Force Environment number                                              1
 GLOBAL| Basis set file name            /hppfs/scratch/04/di38fab/04_TMD/BASIS_A
 GLOBAL| Potential file name            /hppfs/work/pn36zo/di38fab/cp2k/data/ALL
 GLOBAL| MM Potential file name                                     MM_POTENTIAL
 GLOBAL| Coordinate file name                                      __STD_INPUT__
 GLOBAL| Method name                                                        CP2K
 GLOBAL| Project name                                                       MoS2
 GLOBAL| Run type                                                         ENERGY
 GLOBAL| FFT library                                                       FFTW3
 GLOBAL| Diagonalization library                                       ScaLAPACK
 GLOBAL| DGEMM library                                                      BLAS
 GLOBAL| Orthonormality check for eigenvectors                          DISABLED
 GLOBAL| Matrix multiplication library                                 ScaLAPACK
 GLOBAL| All-to-all communication in single precision                          F
 GLOBAL| FFTs using library dependent lengths                                  F
 GLOBAL| Grid backend                                                       AUTO
 GLOBAL| Global print level                                               MEDIUM
 GLOBAL| MPI I/O enabled                                                       T
 GLOBAL| Total number of message passing processes                            96
 GLOBAL| Number of threads for this process                                    4
 GLOBAL| This output is from process                                           0
 GLOBAL| OpenMP stack size per thread (OMP_STACKSIZE)                    default
 GLOBAL| CPU model name             Intel(R) Xeon(R) Platinum 8174 CPU @ 3.10GHz

 MEMORY| system memory details [Kb]
 MEMORY|                        rank 0           min           max       average
 MEMORY| MemTotal             98436664      98436648      98436664      98436659
 MEMORY| MemFree              85202904      85136716      86351844      85479096
 MEMORY| Buffers                     0             0             0             0
 MEMORY| Cached                2378028       2206156       2394100       2337443
 MEMORY| Slab                  1092816        841360       1096156       1031816
 MEMORY| SReclaimable           254224        161536        254224        229664
 MEMORY| MemLikelyFree        87835156      87764032      88720264      88046203


 *** Fundamental physical constants (SI units) ***

 *** Literature: B. J. Mohr and B. N. Taylor,
 ***             CODATA recommended values of the fundamental physical
 ***             constants: 2006, Web Version 5.1
 ***             http://physics.nist.gov/constants

 Speed of light in vacuum [m/s]                             2.99792458000000E+08
 Magnetic constant or permeability of vacuum [N/A**2]       1.25663706143592E-06
 Electric constant or permittivity of vacuum [F/m]          8.85418781762039E-12
 Planck constant (h) [J*s]                                  6.62606896000000E-34
 Planck constant (h-bar) [J*s]                              1.05457162825177E-34
 Elementary charge [C]                                      1.60217648700000E-19
 Electron mass [kg]                                         9.10938215000000E-31
 Electron g factor [ ]                                     -2.00231930436220E+00
 Proton mass [kg]                                           1.67262163700000E-27
 Fine-structure constant                                    7.29735253760000E-03
 Rydberg constant [1/m]                                     1.09737315685270E+07
 Avogadro constant [1/mol]                                  6.02214179000000E+23
 Boltzmann constant [J/K]                                   1.38065040000000E-23
 Atomic mass unit [kg]                                      1.66053878200000E-27
 Bohr radius [m]                                            5.29177208590000E-11

 *** Conversion factors ***

 [u] -> [a.u.]                                              1.82288848426455E+03
 [Angstrom] -> [Bohr] = [a.u.]                              1.88972613288564E+00
 [a.u.] = [Bohr] -> [Angstrom]                              5.29177208590000E-01
 [a.u.] -> [s]                                              2.41888432650478E-17
 [a.u.] -> [fs]                                             2.41888432650478E-02
 [a.u.] -> [J]                                              4.35974393937059E-18
 [a.u.] -> [N]                                              8.23872205491840E-08
 [a.u.] -> [K]                                              3.15774647902944E+05
 [a.u.] -> [kJ/mol]                                         2.62549961709828E+03
 [a.u.] -> [kcal/mol]                                       6.27509468713739E+02
 [a.u.] -> [Pa]                                             2.94210107994716E+13
 [a.u.] -> [bar]                                            2.94210107994716E+08
 [a.u.] -> [atm]                                            2.90362800883016E+08
 [a.u.] -> [eV]                                             2.72113838565563E+01
 [a.u.] -> [Hz]                                             6.57968392072181E+15
 [a.u.] -> [1/cm] (wave numbers)                            2.19474631370540E+05
 [a.u./Bohr**2] -> [1/cm]                                   5.14048714338585E+03
 

 CELL_TOP| Volume [angstrom^3]:                                     27000.000000
 CELL_TOP| Vector a [angstrom    30.000     0.000     0.000   |a| =    30.000000
 CELL_TOP| Vector b [angstrom     0.000    30.000     0.000   |b| =    30.000000
 CELL_TOP| Vector c [angstrom     0.000     0.000    30.000   |c| =    30.000000
 CELL_TOP| Angle (b,c), alpha [degree]:                                90.000000
 CELL_TOP| Angle (a,c), beta  [degree]:                                90.000000
 CELL_TOP| Angle (a,b), gamma [degree]:                                90.000000
 CELL_TOP| Numerically orthorhombic:                                         YES
 CELL_TOP| Periodicity                                                      NONE

 GENERATE|  Preliminary Number of Bonds generated:                             0
 GENERATE|  Achieved consistency in connectivity generation.

 CELL| Volume [angstrom^3]:                                         27000.000000
 CELL| Vector a [angstrom]:      30.000     0.000     0.000   |a| =    30.000000
 CELL| Vector b [angstrom]:       0.000    30.000     0.000   |b| =    30.000000
 CELL| Vector c [angstrom]:       0.000     0.000    30.000   |c| =    30.000000
 CELL| Angle (b,c), alpha [degree]:                                    90.000000
 CELL| Angle (a,c), beta  [degree]:                                    90.000000
 CELL| Angle (a,b), gamma [degree]:                                    90.000000
 CELL| Numerically orthorhombic:                                             YES
 CELL| Periodicity                                                          NONE

 CELL_REF| Volume [angstrom^3]:                                     27000.000000
 CELL_REF| Vector a [angstrom    30.000     0.000     0.000   |a| =    30.000000
 CELL_REF| Vector b [angstrom     0.000    30.000     0.000   |b| =    30.000000
 CELL_REF| Vector c [angstrom     0.000     0.000    30.000   |c| =    30.000000
 CELL_REF| Angle (b,c), alpha [degree]:                                90.000000
 CELL_REF| Angle (a,c), beta  [degree]:                                90.000000
 CELL_REF| Angle (a,b), gamma [degree]:                                90.000000
 CELL_REF| Numerically orthorhombic:                                         YES
 CELL_REF| Periodicity                                                      NONE

 *******************************************************************************
 *******************************************************************************
 **                                                                           **
 **     #####                         ##              ##                      **
 **    ##   ##            ##          ##              ##                      **
 **   ##     ##                       ##            ######                    **
 **   ##     ##  ##   ##  ##   #####  ##  ##   ####   ##    #####    #####    **
 **   ##     ##  ##   ##  ##  ##      ## ##   ##      ##   ##   ##  ##   ##   **
 **   ##  ## ##  ##   ##  ##  ##      ####     ###    ##   ######   ######    **
 **    ##  ###   ##   ##  ##  ##      ## ##      ##   ##   ##       ##        **
 **     #######   #####   ##   #####  ##  ##  ####    ##    #####   ##        **
 **           ##                                                    ##        **
 **                                                                           **
 **                                                ... make the atoms dance   **
 **                                                                           **
 **            Copyright (C) by CP2K developers group (2000-2025)             **
 **                      J. Chem. Phys. 152, 194103 (2020)                    **
 **                                                                           **
 *******************************************************************************

 DFT| Spin restricted Kohn-Sham (RKS) calculation                            RKS
 DFT| Multiplicity                                                             1
 DFT| Number of spin states                                                    1
 DFT| Charge                                                                   0
 DFT| Self-interaction correction (SIC)                                       NO
 DFT| Cutoffs: density                                              1.000000E-10
 DFT|          gradient                                             1.000000E-10
 DFT|          tau                                                  1.000000E-10
 DFT|          cutoff_smoothing_range                               0.000000E+00
 DFT| XC density smoothing                                                  NONE
 DFT| XC derivatives                                                          PW

 FUNCTIONAL| PBE:
 FUNCTIONAL| J.P.Perdew, K.Burke, M.Ernzerhof, Phys. Rev. Letter, vol. 77, n 18,
 FUNCTIONAL|  pp. 3865-3868, (1996)sx=0.750sc=1.000{spin unpolarized}           


 QS| Method:                                                                GAPW
 QS| Density plane wave grid type                        NON-SPHERICAL FULLSPACE
 QS| Number of grid levels:                                                    4
 QS| Density cutoff [a.u.]:                                                250.0
 QS| Multi grid cutoff [a.u.]: 1) grid level                               250.0
 QS|                           2) grid level                                83.3
 QS|                           3) grid level                                27.8
 QS|                           4) grid level                                 9.3
 QS| Grid level progression factor:                                          3.0
 QS| Relative density cutoff [a.u.]:                                        50.0
 QS| Interaction thresholds: eps_pgf_orb:                                1.0E-12
 QS|                         eps_filter_matrix:                          0.0E+00
 QS|                         eps_core_charge:                            1.0E-14
 QS|                         eps_rho_gspace:                             1.0E-12
 QS|                         eps_rho_rspace:                             1.0E-12
 QS|                         eps_gvg_rspace:                             1.0E-06
 QS|                         eps_ppl:                                    1.0E-02
 QS|                         eps_ppnl:                                   1.0E-08
 QS| GAPW|      One center basis from orbital basis primitives
 QS| GAPW|                   eps_fit:                                    1.0E-04
 QS| GAPW|                   eps_iso:                                    1.0E-12
 QS| GAPW|                   eps_svd:                                    1.0E-08
 QS| GAPW|                   eps_cpc:                                    1.0E-12
 QS| GAPW|   atom-r-grid: quadrature:                                     GC_LOG
 QS| GAPW|      atom-s-grid:  max l :                                          4
 QS| GAPW|      max_l_rho0 :                                                   2


 ATOMIC KIND INFORMATION

  1. Atomic kind: be                                    Number of atoms:       1

     Orbital Basis Set                                         SVP-MOLOPT-GGA-ae

       Number of orbital shell sets:                                           2
       Number of orbital shells:                                               5
       Number of primitive Cartesian functions:                               11
       Number of Cartesian basis functions:                                    9
       Number of spherical basis functions:                                    9
       Norm type:                                                              2

       Normalised Cartesian orbitals:

                        Set   Shell   Orbital            Exponent    Coefficient

                          1       1    1px               3.151839      -0.672293
                                                         0.565226      -0.424822
                                                         0.180943      -0.071185
                                                         0.041095      -0.000589
                          1       1    1py               3.151839      -0.672293
                                                         0.565226      -0.424822
                                                         0.180943      -0.071185
                                                         0.041095      -0.000589
                          1       1    1pz               3.151839      -0.672293
                                                         0.565226      -0.424822
                                                         0.180943      -0.071185
                                                         0.041095      -0.000589

                          1       2    2px               3.151839      -0.395950
                                                         0.565226      -0.354338
                                                         0.180943       0.120246
                                                         0.041095       0.015814
                          1       2    2py               3.151839      -0.395950
                                                         0.565226      -0.354338
                                                         0.180943       0.120246
                                                         0.041095       0.015814
                          1       2    2pz               3.151839      -0.395950
                                                         0.565226      -0.354338
                                                         0.180943       0.120246
                                                         0.041095       0.015814

                          2       1    1s              515.033522       0.448549
                                                        77.505978       0.836854
                                                        16.811944       1.182832
                                                         4.364212       1.032588
                                                         1.303729       0.321081
                                                         0.242561       0.012046
                                                         0.082114       0.009939

                          2       2    2s              515.033522      -0.014657
                                                        77.505978       0.120016
                                                        16.811944      -0.057729
                                                         4.364212      -0.058378
                                                         1.303729      -0.147212
                                                         0.242561       0.151567
                                                         0.082114       0.056640

                          2       3    3s              515.033522      -0.648951
                                                        77.505978      -0.019529
                                                        16.811944      -0.982341
                                                         4.364212      -0.262285
                                                         1.303729       0.027767
                                                         0.242561      -0.333167
                                                         0.082114       0.175708

     RI Auxiliary Basis Set                                    aug-cc-pV5Z-RIFIT

       Number of orbital shell sets:                                          46
       Number of orbital shells:                                              46
       Number of primitive Cartesian functions:                               46
       Number of Cartesian basis functions:                                  371
       Number of spherical basis functions:                                  242
       Norm type:                                                              2

       Normalised Cartesian orbitals:

                        Set   Shell   Orbital            Exponent    Coefficient

                          1       1    1s                0.044290       0.068808

                          2       1    1px               0.051574       0.035033
                          2       1    1py               0.051574       0.035033
                          2       1    1pz               0.051574       0.035033

                          3       1    1px               0.078547       0.059272
                          3       1    1py               0.078547       0.059272
                          3       1    1pz               0.078547       0.059272

                          4       1    1dx2              0.080920       0.020207
                          4       1    1dxy              0.080920       0.035000
                          4       1    1dxz              0.080920       0.035000
                          4       1    1dy2              0.080920       0.020207
                          4       1    1dyz              0.080920       0.035000
                          4       1    1dz2              0.080920       0.020207

                          5       1    1s                0.090836       0.117925

                          6       1    1fx3              0.128523       0.014560
                          6       1    1fx2y             0.128523       0.032557
                          6       1    1fx2z             0.128523       0.032557
                          6       1    1fxy2             0.128523       0.032557
                          6       1    1fxyz             0.128523       0.056391
                          6       1    1fxz2             0.128523       0.032557
                          6       1    1fy3              0.128523       0.014560
                          6       1    1fy2z             0.128523       0.032557
                          6       1    1fyz2             0.128523       0.032557
                          6       1    1fz3              0.128523       0.014560

                          7       1    1dx2              0.136955       0.050748
                          7       1    1dxy              0.136955       0.087898
                          7       1    1dxz              0.136955       0.087898
                          7       1    1dy2              0.136955       0.050748
                          7       1    1dyz              0.136955       0.087898
                          7       1    1dz2              0.136955       0.050748

                          8       1    1px               0.148487       0.131386
                          8       1    1py               0.148487       0.131386
                          8       1    1pz               0.148487       0.131386

                          9       1    1s                0.168188       0.187179

                         10       1    1gx4              0.190993       0.011728
                         10       1    1gx3y             0.190993       0.031030
                         10       1    1gx3z             0.190993       0.031030
                         10       1    1gx2y2            0.190993       0.040060
                         10       1    1gx2yz            0.190993       0.069385
                         10       1    1gx2z2            0.190993       0.040060
                         10       1    1gxy3             0.190993       0.031030
                         10       1    1gxy2z            0.190993       0.069385
                         10       1    1gxyz2            0.190993       0.069385
                         10       1    1gxz3             0.190993       0.031030
                         10       1    1gy4              0.190993       0.011728
                         10       1    1gy3z             0.190993       0.031030
                         10       1    1gy2z2            0.190993       0.040060
                         10       1    1gyz3             0.190993       0.031030
                         10       1    1gz4              0.190993       0.011728

                         11       1    1fx3              0.205294       0.041764
                         11       1    1fx2y             0.205294       0.093387
                         11       1    1fx2z             0.205294       0.093387
                         11       1    1fxy2             0.205294       0.093387
                         11       1    1fxyz             0.205294       0.161751
                         11       1    1fxz2             0.205294       0.093387
                         11       1    1fy3              0.205294       0.041764
                         11       1    1fy2z             0.205294       0.093387
                         11       1    1fyz2             0.205294       0.093387
                         11       1    1fz3              0.205294       0.041764

                         12       1    1dx2              0.238389       0.133863
                         12       1    1dxy              0.238389       0.231857
                         12       1    1dxz              0.238389       0.231857
                         12       1    1dy2              0.238389       0.133863
                         12       1    1dyz              0.238389       0.231857
                         12       1    1dz2              0.238389       0.133863

                         13       1    1px               0.289372       0.302525
                         13       1    1py               0.289372       0.302525
                         13       1    1pz               0.289372       0.302525

                         14       1    1s                0.304521       0.292162

                         15       1    1fx3              0.330842       0.122208
                         15       1    1fx2y             0.330842       0.273266
                         15       1    1fx2z             0.330842       0.273266
                         15       1    1fxy2             0.330842       0.273266
                         15       1    1fxyz             0.330842       0.473311
                         15       1    1fxz2             0.330842       0.273266
                         15       1    1fy3              0.330842       0.122208
                         15       1    1fy2z             0.330842       0.273266
                         15       1    1fyz2             0.330842       0.273266
                         15       1    1fz3              0.330842       0.122208

                         16       1    1hx5              0.344441       0.023226
                         16       1    1hx4y             0.344441       0.069677
                         16       1    1hx4z             0.344441       0.069677
                         16       1    1hx3y2            0.344441       0.106433
                         16       1    1hx3yz            0.344441       0.184348
                         16       1    1hx3z2            0.344441       0.106433
                         16       1    1hx2y3            0.344441       0.106433
                         16       1    1hx2y2z           0.344441       0.237992
                         16       1    1hx2yz2           0.344441       0.237992
                         16       1    1hx2z3            0.344441       0.106433
                         16       1    1hxy4             0.344441       0.069677
                         16       1    1hxy3z            0.344441       0.184348
                         16       1    1hxy2z2           0.344441       0.237992
                         16       1    1hxyz3            0.344441       0.184348
                         16       1    1hxz4             0.344441       0.069677
                         16       1    1hy5              0.344441       0.023226
                         16       1    1hy4z             0.344441       0.069677
                         16       1    1hy3z2            0.344441       0.106433
                         16       1    1hy2z3            0.344441       0.106433
                         16       1    1hyz4             0.344441       0.069677
                         16       1    1hz5              0.344441       0.023226

                         17       1    1gx4              0.380351       0.077973
                         17       1    1gx3y             0.380351       0.206297
                         17       1    1gx3z             0.380351       0.206297
                         17       1    1gx2y2            0.380351       0.266328
                         17       1    1gx2yz            0.380351       0.461293
                         17       1    1gx2z2            0.380351       0.266328
                         17       1    1gxy3             0.380351       0.206297
                         17       1    1gxy2z            0.380351       0.461293
                         17       1    1gxyz2            0.380351       0.461293
                         17       1    1gxz3             0.380351       0.206297
                         17       1    1gy4              0.380351       0.077973
                         17       1    1gy3z             0.380351       0.206297
                         17       1    1gy2z2            0.380351       0.266328
                         17       1    1gyz3             0.380351       0.206297
                         17       1    1gz4              0.380351       0.077973

                         18       1    1ix6              0.424356       0.017975
                         18       1    1ix5y             0.424356       0.059616
                         18       1    1ix5z             0.424356       0.059616
                         18       1    1ix4y2            0.424356       0.103258
                         18       1    1ix4yz            0.424356       0.178848
                         18       1    1ix4z2            0.424356       0.103258
                         18       1    1ix3y3            0.424356       0.122176
                         18       1    1ix3y2z           0.424356       0.273195
                         18       1    1ix3yz2           0.424356       0.273195
                         18       1    1ix3z3            0.424356       0.122176
                         18       1    1ix2y4            0.424356       0.103258
                         18       1    1ix2y3z           0.424356       0.273195
                         18       1    1ix2y2z2          0.424356       0.352693
                         18       1    1ix2yz3           0.424356       0.273195
                         18       1    1ix2z4            0.424356       0.103258
                         18       1    1ixy5             0.424356       0.059616
                         18       1    1ixy4z            0.424356       0.178848
                         18       1    1ixy3z2           0.424356       0.273195
                         18       1    1ixy2z3           0.424356       0.273195
                         18       1    1ixyz4            0.424356       0.178848
                         18       1    1ixz5             0.424356       0.059616
                         18       1    1iy6              0.424356       0.017975
                         18       1    1iy5z             0.424356       0.059616
                         18       1    1iy4z2            0.424356       0.103258
                         18       1    1iy3z3            0.424356       0.122176
                         18       1    1iy2z4            0.424356       0.103258
                         18       1    1iyz5             0.424356       0.059616
                         18       1    1iz6              0.424356       0.017975

                         19       1    1dx2              0.453927       0.413176
                         19       1    1dxy              0.453927       0.715642
                         19       1    1dxz              0.453927       0.715642
                         19       1    1dy2              0.453927       0.413176
                         19       1    1dyz              0.453927       0.715642
                         19       1    1dz2              0.453927       0.413176

                         20       1    1s                0.494373       0.420195

                         21       1    1fx3              0.497082       0.305434
                         21       1    1fx2y             0.497082       0.682971
                         21       1    1fx2z             0.497082       0.682971
                         21       1    1fxy2             0.497082       0.682971
                         21       1    1fxyz             0.497082       1.182941
                         21       1    1fxz2             0.497082       0.682971
                         21       1    1fy3              0.497082       0.305434
                         21       1    1fy2z             0.497082       0.682971
                         21       1    1fyz2             0.497082       0.682971
                         21       1    1fz3              0.497082       0.305434

                         22       1    1hx5              0.511708       0.084075
                         22       1    1hx4y             0.511708       0.252225
                         22       1    1hx4z             0.511708       0.252225
                         22       1    1hx3y2            0.511708       0.385280
                         22       1    1hx3yz            0.511708       0.667324
                         22       1    1hx3z2            0.511708       0.385280
                         22       1    1hx2y3            0.511708       0.385280
                         22       1    1hx2y2z           0.511708       0.861511
                         22       1    1hx2yz2           0.511708       0.861511
                         22       1    1hx2z3            0.511708       0.385280
                         22       1    1hxy4             0.511708       0.252225
                         22       1    1hxy3z            0.511708       0.667324
                         22       1    1hxy2z2           0.511708       0.861511
                         22       1    1hxyz3            0.511708       0.667324
                         22       1    1hxz4             0.511708       0.252225
                         22       1    1hy5              0.511708       0.084075
                         22       1    1hy4z             0.511708       0.252225
                         22       1    1hy3z2            0.511708       0.385280
                         22       1    1hy2z3            0.511708       0.385280
                         22       1    1hyz4             0.511708       0.252225
                         22       1    1hz5              0.511708       0.084075

                         23       1    1gx4              0.515330       0.179751
                         23       1    1gx3y             0.515330       0.475575
                         23       1    1gx3z             0.515330       0.475575
                         23       1    1gx2y2            0.515330       0.613965
                         23       1    1gx2yz            0.515330       1.063419
                         23       1    1gx2z2            0.515330       0.613965
                         23       1    1gxy3             0.515330       0.475575
                         23       1    1gxy2z            0.515330       1.063419
                         23       1    1gxyz2            0.515330       1.063419
                         23       1    1gxz3             0.515330       0.475575
                         23       1    1gy4              0.515330       0.179751
                         23       1    1gy3z             0.515330       0.475575
                         23       1    1gy2z2            0.515330       0.613965
                         23       1    1gyz3             0.515330       0.475575
                         23       1    1gz4              0.515330       0.179751

                         24       1    1px               0.594885       0.744700
                         24       1    1py               0.594885       0.744700
                         24       1    1pz               0.594885       0.744700

                         25       1    1hx5              0.672211       0.204050
                         25       1    1hx4y             0.672211       0.612151
                         25       1    1hx4z             0.672211       0.612151
                         25       1    1hx3y2            0.672211       0.935076
                         25       1    1hx3yz            0.672211       1.619600
                         25       1    1hx3z2            0.672211       0.935076
                         25       1    1hx2y3            0.672211       0.935076
                         25       1    1hx2y2z           0.672211       2.090894
                         25       1    1hx2yz2           0.672211       2.090894
                         25       1    1hx2z3            0.672211       0.935076
                         25       1    1hxy4             0.672211       0.612151
                         25       1    1hxy3z            0.672211       1.619600
                         25       1    1hxy2z2           0.672211       2.090894
                         25       1    1hxyz3            0.672211       1.619600
                         25       1    1hxz4             0.672211       0.612151
                         25       1    1hy5              0.672211       0.204050
                         25       1    1hy4z             0.672211       0.612151
                         25       1    1hy3z2            0.672211       0.935076
                         25       1    1hy2z3            0.672211       0.935076
                         25       1    1hyz4             0.672211       0.612151
                         25       1    1hz5              0.672211       0.204050

                         26       1    1ix6              0.672211       0.100884
                         26       1    1ix5y             0.672211       0.334596
                         26       1    1ix5z             0.672211       0.334596
                         26       1    1ix4y2            0.672211       0.579537
                         26       1    1ix4yz            0.672211       1.003787
                         26       1    1ix4z2            0.672211       0.579537
                         26       1    1ix3y3            0.672211       0.685717
                         26       1    1ix3y2z           0.672211       1.533310
                         26       1    1ix3yz2           0.672211       1.533310
                         26       1    1ix3z3            0.672211       0.685717
                         26       1    1ix2y4            0.672211       0.579537
                         26       1    1ix2y3z           0.672211       1.533310
                         26       1    1ix2y2z2          0.672211       1.979494
                         26       1    1ix2yz3           0.672211       1.533310
                         26       1    1ix2z4            0.672211       0.579537
                         26       1    1ixy5             0.672211       0.334596
                         26       1    1ixy4z            0.672211       1.003787
                         26       1    1ixy3z2           0.672211       1.533310
                         26       1    1ixy2z3           0.672211       1.533310
                         26       1    1ixyz4            0.672211       1.003787
                         26       1    1ixz5             0.672211       0.334596
                         26       1    1iy6              0.672211       0.100884
                         26       1    1iy5z             0.672211       0.334596
                         26       1    1iy4z2            0.672211       0.579537
                         26       1    1iy3z3            0.672211       0.685717
                         26       1    1iy2z4            0.672211       0.579537
                         26       1    1iyz5             0.672211       0.334596
                         26       1    1iz6              0.672211       0.100884

                         27       1    1gx4              0.727039       0.463147
                         27       1    1gx3y             0.727039       1.225373
                         27       1    1gx3z             0.727039       1.225373
                         27       1    1gx2y2            0.727039       1.581949
                         27       1    1gx2yz            0.727039       2.740016
                         27       1    1gx2z2            0.727039       1.581949
                         27       1    1gxy3             0.727039       1.225373
                         27       1    1gxy2z            0.727039       2.740016
                         27       1    1gxyz2            0.727039       2.740016
                         27       1    1gxz3             0.727039       1.225373
                         27       1    1gy4              0.727039       0.463147
                         27       1    1gy3z             0.727039       1.225373
                         27       1    1gy2z2            0.727039       1.581949
                         27       1    1gyz3             0.727039       1.225373
                         27       1    1gz4              0.727039       0.463147

                         28       1    1fx3              0.874992       1.090093
                         28       1    1fx2y             0.874992       2.437523
                         28       1    1fx2z             0.874992       2.437523
                         28       1    1fxy2             0.874992       2.437523
                         28       1    1fxyz             0.874992       4.221913
                         28       1    1fxz2             0.874992       2.437523
                         28       1    1fy3              0.874992       1.090093
                         28       1    1fy2z             0.874992       2.437523
                         28       1    1fyz2             0.874992       2.437523
                         28       1    1fz3              0.874992       1.090093

                         29       1    1dx2              0.897386       1.361831
                         29       1    1dxy              0.897386       2.358760
                         29       1    1dxz              0.897386       2.358760
                         29       1    1dy2              0.897386       1.361831
                         29       1    1dyz              0.897386       2.358760
                         29       1    1dz2              0.897386       1.361831

                         30       1    1s                0.941824       0.681377

                         31       1    1px               1.274640       1.930521
                         31       1    1py               1.274640       1.930521
                         31       1    1pz               1.274640       1.930521

                         32       1    1hx5              1.504620       2.798861
                         32       1    1hx4y             1.504620       8.396584
                         32       1    1hx4z             1.504620       8.396584
                         32       1    1hx3y2            1.504620      12.825993
                         32       1    1hx3yz            1.504620      22.215272
                         32       1    1hx3z2            1.504620      12.825993
                         32       1    1hx2y3            1.504620      12.825993
                         32       1    1hx2y2z           1.504620      28.679793
                         32       1    1hx2yz2           1.504620      28.679793
                         32       1    1hx2z3            1.504620      12.825993
                         32       1    1hxy4             1.504620       8.396584
                         32       1    1hxy3z            1.504620      22.215272
                         32       1    1hxy2z2           1.504620      28.679793
                         32       1    1hxyz3            1.504620      22.215272
                         32       1    1hxz4             1.504620       8.396584
                         32       1    1hy5              1.504620       2.798861
                         32       1    1hy4z             1.504620       8.396584
                         32       1    1hy3z2            1.504620      12.825993
                         32       1    1hy2z3            1.504620      12.825993
                         32       1    1hyz4             1.504620       8.396584
                         32       1    1hz5              1.504620       2.798861

                         33       1    1dx2              1.733830       4.311922
                         33       1    1dxy              1.733830       7.468467
                         33       1    1dxz              1.733830       7.468467
                         33       1    1dy2              1.733830       4.311922
                         33       1    1dyz              1.733830       7.468467
                         33       1    1dz2              1.733830       4.311922

                         34       1    1fx3              1.761390       5.261740
                         34       1    1fx2y             1.761390      11.765608
                         34       1    1fx2z             1.761390      11.765608
                         34       1    1fxy2             1.761390      11.765608
                         34       1    1fxyz             1.761390      20.378631
                         34       1    1fxz2             1.761390      11.765608
                         34       1    1fy3              1.761390       5.261740
                         34       1    1fy2z             1.761390      11.765608
                         34       1    1fyz2             1.761390      11.765608
                         34       1    1fz3              1.761390       5.261740

                         35       1    1s                2.048250       1.220246

                         36       1    1gx4              2.356140      11.748663
                         36       1    1gx3y             2.356140      31.084039
                         36       1    1gx3z             2.356140      31.084039
                         36       1    1gx2y2            2.356140      40.129322
                         36       1    1gx2yz            2.356140      69.506025
                         36       1    1gx2z2            2.356140      40.129322
                         36       1    1gxy3             2.356140      31.084039
                         36       1    1gxy2z            2.356140      69.506025
                         36       1    1gxyz2            2.356140      69.506025
                         36       1    1gxz3             2.356140      31.084039
                         36       1    1gy4              2.356140      11.748663
                         36       1    1gy3z             2.356140      31.084039
                         36       1    1gy2z2            2.356140      40.129322
                         36       1    1gyz3             2.356140      31.084039
                         36       1    1gz4              2.356140      11.748663

                         37       1    1px               3.244700       6.207379
                         37       1    1py               3.244700       6.207379
                         37       1    1pz               3.244700       6.207379

                         38       1    1dx2              3.818020      17.164308
                         38       1    1dxy              3.818020      29.729454
                         38       1    1dxz              3.818020      29.729454
                         38       1    1dy2              3.818020      17.164308
                         38       1    1dyz              3.818020      29.729454
                         38       1    1dz2              3.818020      17.164308

                         39       1    1fx3              4.091040      35.041310
                         39       1    1fx2y             4.091040      78.354751
                         39       1    1fx2z             4.091040      78.354751
                         39       1    1fxy2             4.091040      78.354751
                         39       1    1fxyz             4.091040     135.714410
                         39       1    1fxz2             4.091040      78.354751
                         39       1    1fy3              4.091040      35.041310
                         39       1    1fy2z             4.091040      78.354751
                         39       1    1fyz2             4.091040      78.354751
                         39       1    1fz3              4.091040      35.041310

                         40       1    1s                5.187230       2.449693

                         41       1    1px               8.190870      19.751616
                         41       1    1py               8.190870      19.751616
                         41       1    1pz               8.190870      19.751616

                         42       1    1dx2              9.776100      88.960931
                         42       1    1dxy              9.776100     154.084852
                         42       1    1dxz              9.776100     154.084852
                         42       1    1dy2              9.776100      88.960931
                         42       1    1dyz              9.776100     154.084852
                         42       1    1dz2              9.776100      88.960931

                         43       1    1s                9.865750       3.967415

                         44       1    1px              29.226300      96.862882
                         44       1    1py              29.226300      96.862882
                         44       1    1pz              29.226300      96.862882

                         45       1    1s               33.616500       9.950032

                         46       1    1s              155.476000      31.380338

       Atomic covalent radius [Angstrom]:                                  0.900

       Atomic van der Waals radius [Angstrom]:                             1.530

     The atoms of this atomic kind are PAW atoms (GAPW):
       Hard Gaussian function radius:                                      1.512
       Rho0 radius:                                                        1.512
       Maximum GTO radius used for PAW projector construction:            24.566

     GAPW Soft Basis Set                                  SVP-MOLOPT-GGA-ae_soft

       Number of orbital shell sets:                                           2
       Number of orbital shells:                                               5
       Number of primitive Cartesian functions:                                7
       Number of Cartesian basis functions:                                    9
       Number of spherical basis functions:                                    9
       Norm type:                                                              2

       Normalised Cartesian orbitals:

                        Set   Shell   Orbital            Exponent    Coefficient

                          1       1    1px               3.151839      -0.672293
                                                         0.565226      -0.424822
                                                         0.180943      -0.071185
                                                         0.041095      -0.000589
                          1       1    1py               3.151839      -0.672293
                                                         0.565226      -0.424822
                                                         0.180943      -0.071185
                                                         0.041095      -0.000589
                          1       1    1pz               3.151839      -0.672293
                                                         0.565226      -0.424822
                                                         0.180943      -0.071185
                                                         0.041095      -0.000589

                          1       2    2px               3.151839      -0.395950
                                                         0.565226      -0.354338
                                                         0.180943       0.120246
                                                         0.041095       0.015814
                          1       2    2py               3.151839      -0.395950
                                                         0.565226      -0.354338
                                                         0.180943       0.120246
                                                         0.041095       0.015814
                          1       2    2pz               3.151839      -0.395950
                                                         0.565226      -0.354338
                                                         0.180943       0.120246
                                                         0.041095       0.015814

                          2       1    1s                1.303729       0.321081
                                                         0.242561       0.012046
                                                         0.082114       0.009939

                          2       2    2s                1.303729      -0.147212
                                                         0.242561       0.151567
                                                         0.082114       0.056640

                          2       3    3s                1.303729       0.027767
                                                         0.242561      -0.333167
                                                         0.082114       0.175708

     AE Potential information for                                            ALL

       Description:                                       All-electron potential
                                          Krack, Parrinello, PCCP 2, 2105 (2000)

       Gaussian exponent of the core charge distribution:               4.733728
       Electronic configuration (s p d ...):                           4   0   0

  2. Atomic kind: o                                     Number of atoms:       1

     Orbital Basis Set                                         SVP-MOLOPT-GGA-ae

       Number of orbital shell sets:                                           2
       Number of orbital shells:                                               6
       Number of primitive Cartesian functions:                               11
       Number of Cartesian basis functions:                                   15
       Number of spherical basis functions:                                   14
       Norm type:                                                              2

       Normalised Cartesian orbitals:

                        Set   Shell   Orbital            Exponent    Coefficient

                          1       1    2px              16.368686       3.596544
                                                         2.907977       2.082711
                                                         0.750068       0.626550
                                                         0.191936       0.023686
                          1       1    2py              16.368686       3.596544
                                                         2.907977       2.082711
                                                         0.750068       0.626550
                                                         0.191936       0.023686
                          1       1    2pz              16.368686       3.596544
                                                         2.907977       2.082711
                                                         0.750068       0.626550
                                                         0.191936       0.023686

                          1       2    3px              16.368686      -1.323495
                                                         2.907977      -0.566756
                                                         0.750068      -0.157257
                                                         0.191936       0.196557
                          1       2    3py              16.368686      -1.323495
                                                         2.907977      -0.566756
                                                         0.750068      -0.157257
                                                         0.191936       0.196557
                          1       2    3pz              16.368686      -1.323495
                                                         2.907977      -0.566756
                                                         0.750068      -0.157257
                                                         0.191936       0.196557

                          1       3    3dx2             16.368686       1.487256
                                                         2.907977       1.586204
                                                         0.750068       0.724129
                                                         0.191936       0.030414
                          1       3    3dxy             16.368686       2.576002
                                                         2.907977       2.747386
                                                         0.750068       1.254227
                                                         0.191936       0.052678
                          1       3    3dxz             16.368686       2.576002
                                                         2.907977       2.747386
                                                         0.750068       1.254227
                                                         0.191936       0.052678
                          1       3    3dy2             16.368686       1.487256
                                                         2.907977       1.586204
                                                         0.750068       0.724129
                                                         0.191936       0.030414
                          1       3    3dyz             16.368686       2.576002
                                                         2.907977       2.747386
                                                         0.750068       1.254227
                                                         0.191936       0.052678
                          1       3    3dz2             16.368686       1.487256
                                                         2.907977       1.586204
                                                         0.750068       0.724129
                                                         0.191936       0.030414

                          2       1    1s             2266.118827      -1.088852
                                                       340.903325      -2.616043
                                                        76.928143      -3.538410
                                                        19.692604      -3.542509
                                                         5.946538      -1.128731
                                                         0.941883       0.076823
                                                         0.293338      -0.001581

                          2       2    2s             2266.118827       0.730749
                                                       340.903325      -0.343055
                                                        76.928143       1.294240
                                                        19.692604       0.350657
                                                         5.946538       0.132815
                                                         0.941883       0.386056
                                                         0.293338       0.124568

                          2       3    3s             2266.118827      -6.417666
                                                       340.903325       2.878168
                                                        76.928143      -3.484318
                                                        19.692604      -0.580898
                                                         5.946538      -0.324434
                                                         0.941883      -0.735854
                                                         0.293338       0.411906

     RI Auxiliary Basis Set                                    aug-cc-pV5Z-RIFIT

       Number of orbital shell sets:                                          46
       Number of orbital shells:                                              46
       Number of primitive Cartesian functions:                               46
       Number of Cartesian basis functions:                                  371
       Number of spherical basis functions:                                  242
       Norm type:                                                              2

       Normalised Cartesian orbitals:

                        Set   Shell   Orbital            Exponent    Coefficient

                          1       1    1s                0.096630       0.123522

                          2       1    1dx2              0.140000       0.052739
                          2       1    1dxy              0.140000       0.091347
                          2       1    1dxz              0.140000       0.091347
                          2       1    1dy2              0.140000       0.052739
                          2       1    1dyz              0.140000       0.091347
                          2       1    1dz2              0.140000       0.052739

                          3       1    1px               0.169976       0.155570
                          3       1    1py               0.169976       0.155570
                          3       1    1pz               0.169976       0.155570

                          4       1    1fx3              0.238692       0.058626
                          4       1    1fx2y             0.238692       0.131092
                          4       1    1fx2z             0.238692       0.131092
                          4       1    1fxy2             0.238692       0.131092
                          4       1    1fxyz             0.238692       0.227057
                          4       1    1fxz2             0.238692       0.131092
                          4       1    1fy3              0.238692       0.058626
                          4       1    1fy2z             0.238692       0.131092
                          4       1    1fyz2             0.238692       0.131092
                          4       1    1fz3              0.238692       0.058626

                          5       1    1s                0.251005       0.252739

                          6       1    1dx2              0.303063       0.203747
                          6       1    1dxy              0.303063       0.352901
                          6       1    1dxz              0.303063       0.352901
                          6       1    1dy2              0.303063       0.203747
                          6       1    1dyz              0.303063       0.352901
                          6       1    1dz2              0.303063       0.203747

                          7       1    1gx4              0.410343       0.096070
                          7       1    1gx3y             0.410343       0.254178
                          7       1    1gx3z             0.410343       0.254178
                          7       1    1gx2y2            0.410343       0.328143
                          7       1    1gx2yz            0.410343       0.568360
                          7       1    1gx2z2            0.410343       0.328143
                          7       1    1gxy3             0.410343       0.254178
                          7       1    1gxy2z            0.410343       0.568360
                          7       1    1gxyz2            0.410343       0.568360
                          7       1    1gxz3             0.410343       0.254178
                          7       1    1gy4              0.410343       0.096070
                          7       1    1gy3z             0.410343       0.254178
                          7       1    1gy2z2            0.410343       0.328143
                          7       1    1gyz3             0.410343       0.254178
                          7       1    1gz4              0.410343       0.096070

                          8       1    1px               0.416519       0.476962
                          8       1    1py               0.416519       0.476962
                          8       1    1pz               0.416519       0.476962

                          9       1    1s                0.474911       0.407727

                         10       1    1fx3              0.621013       0.504001
                         10       1    1fx2y             0.621013       1.126979
                         10       1    1fx2z             0.621013       1.126979
                         10       1    1fxy2             0.621013       1.126979
                         10       1    1fxyz             0.621013       1.951986
                         10       1    1fxz2             0.621013       1.126979
                         10       1    1fy3              0.621013       0.504001
                         10       1    1fy2z             0.621013       1.126979
                         10       1    1fyz2             0.621013       1.126979
                         10       1    1fz3              0.621013       0.504001

                         11       1    1px               0.696641       0.907197
                         11       1    1py               0.696641       0.907197
                         11       1    1pz               0.696641       0.907197

                         12       1    1dx2              0.719024       0.924082
                         12       1    1dxy              0.719024       1.600557
                         12       1    1dxz              0.719024       1.600557
                         12       1    1dy2              0.719024       0.924082
                         12       1    1dyz              0.719024       1.600557
                         12       1    1dz2              0.719024       0.924082

                         13       1    1hx5              0.790781       0.345961
                         13       1    1hx4y             0.790781       1.037882
                         13       1    1hx4z             0.790781       1.037882
                         13       1    1hx3y2            0.790781       1.585392
                         13       1    1hx3yz            0.790781       2.745979
                         13       1    1hx3z2            0.790781       1.585392
                         13       1    1hx2y3            0.790781       1.585392
                         13       1    1hx2y2z           0.790781       3.545043
                         13       1    1hx2yz2           0.790781       3.545043
                         13       1    1hx2z3            0.790781       1.585392
                         13       1    1hxy4             0.790781       1.037882
                         13       1    1hxy3z            0.790781       2.745979
                         13       1    1hxy2z2           0.790781       3.545043
                         13       1    1hxyz3            0.790781       2.745979
                         13       1    1hxz4             0.790781       1.037882
                         13       1    1hy5              0.790781       0.345961
                         13       1    1hy4z             0.790781       1.037882
                         13       1    1hy3z2            0.790781       1.585392
                         13       1    1hy2z3            0.790781       1.585392
                         13       1    1hyz4             0.790781       1.037882
                         13       1    1hz5              0.790781       0.345961

                         14       1    1gx4              1.007810       1.136912
                         14       1    1gx3y             1.007810       3.007986
                         14       1    1gx3z             1.007810       3.007986
                         14       1    1gx2y2            1.007810       3.883293
                         14       1    1gx2yz            1.007810       6.726061
                         14       1    1gx2z2            1.007810       3.883293
                         14       1    1gxy3             1.007810       3.007986
                         14       1    1gxy2z            1.007810       6.726061
                         14       1    1gxyz2            1.007810       6.726061
                         14       1    1gxz3             1.007810       3.007986
                         14       1    1gy4              1.007810       1.136912
                         14       1    1gy3z             1.007810       3.007986
                         14       1    1gy2z2            1.007810       3.883293
                         14       1    1gyz3             1.007810       3.007986
                         14       1    1gz4              1.007810       1.136912

                         15       1    1s                1.058590       0.743800

                         16       1    1fx3              1.185310       2.158124
                         16       1    1fx2y             1.185310       4.825711
                         16       1    1fx2z             1.185310       4.825711
                         16       1    1fxy2             1.185310       4.825711
                         16       1    1fxyz             1.185310       8.358377
                         16       1    1fxz2             1.185310       4.825711
                         16       1    1fy3              1.185310       2.158124
                         16       1    1fy2z             1.185310       4.825711
                         16       1    1fyz2             1.185310       4.825711
                         16       1    1fz3              1.185310       2.158124

                         17       1    1px               1.274280       1.929839
                         17       1    1py               1.274280       1.929839
                         17       1    1pz               1.274280       1.929839

                         18       1    1ix6              1.382920       1.508922
                         18       1    1ix5y             1.382920       5.004528
                         18       1    1ix5z             1.382920       5.004528
                         18       1    1ix4y2            1.382920       8.668097
                         18       1    1ix4yz            1.382920      15.013584
                         18       1    1ix4z2            1.382920       8.668097
                         18       1    1ix3y3            1.382920      10.256231
                         18       1    1ix3y2z           1.382920      22.933629
                         18       1    1ix3yz2           1.382920      22.933629
                         18       1    1ix3z3            1.382920      10.256231
                         18       1    1ix2y4            1.382920       8.668097
                         18       1    1ix2y3z           1.382920      22.933629
                         18       1    1ix2y2z2          1.382920      29.607187
                         18       1    1ix2yz3           1.382920      22.933629
                         18       1    1ix2z4            1.382920       8.668097
                         18       1    1ixy5             1.382920       5.004528
                         18       1    1ixy4z            1.382920      15.013584
                         18       1    1ixy3z2           1.382920      22.933629
                         18       1    1ixy2z3           1.382920      22.933629
                         18       1    1ixyz4            1.382920      15.013584
                         18       1    1ixz5             1.382920       5.004528
                         18       1    1iy6              1.382920       1.508922
                         18       1    1iy5z             1.382920       5.004528
                         18       1    1iy4z2            1.382920       8.668097
                         18       1    1iy3z3            1.382920      10.256231
                         18       1    1iy2z4            1.382920       8.668097
                         18       1    1iyz5             1.382920       5.004528
                         18       1    1iz6              1.382920       1.508922

                         19       1    1dx2              1.442130       3.123685
                         19       1    1dxy              1.442130       5.410380
                         19       1    1dxz              1.442130       5.410380
                         19       1    1dy2              1.442130       3.123685
                         19       1    1dyz              1.442130       5.410380
                         19       1    1dz2              1.442130       3.123685

                         20       1    1hx5              1.724010       4.356106
                         20       1    1hx4y             1.724010      13.068318
                         20       1    1hx4z             1.724010      13.068318
                         20       1    1hx3y2            1.724010      19.962186
                         20       1    1hx3yz            1.724010      34.575521
                         20       1    1hx3z2            1.724010      19.962186
                         20       1    1hx2y3            1.724010      19.962186
                         20       1    1hx2y2z           1.724010      44.636805
                         20       1    1hx2yz2           1.724010      44.636805
                         20       1    1hx2z3            1.724010      19.962186
                         20       1    1hxy4             1.724010      13.068318
                         20       1    1hxy3z            1.724010      34.575521
                         20       1    1hxy2z2           1.724010      44.636805
                         20       1    1hxyz3            1.724010      34.575521
                         20       1    1hxz4             1.724010      13.068318
                         20       1    1hy5              1.724010       4.356106
                         20       1    1hy4z             1.724010      13.068318
                         20       1    1hy3z2            1.724010      19.962186
                         20       1    1hy2z3            1.724010      19.962186
                         20       1    1hyz4             1.724010      13.068318
                         20       1    1hz5              1.724010       4.356106

                         21       1    1s                1.940030       1.171565

                         22       1    1gx4              2.038250       7.886665
                         22       1    1gx3y             2.038250      20.866155
                         22       1    1gx3z             2.038250      20.866155
                         22       1    1gx2y2            2.038250      26.938091
                         22       1    1gx2yz            2.038250      46.658142
                         22       1    1gx2z2            2.038250      26.938091
                         22       1    1gxy3             2.038250      20.866155
                         22       1    1gxy2z            2.038250      46.658142
                         22       1    1gxyz2            2.038250      46.658142
                         22       1    1gxz3             2.038250      20.866155
                         22       1    1gy4              2.038250       7.886665
                         22       1    1gy3z             2.038250      20.866155
                         22       1    1gy2z2            2.038250      26.938091
                         22       1    1gyz3             2.038250      20.866155
                         22       1    1gz4              2.038250       7.886665

                         23       1    1fx3              2.093740       7.763019
                         23       1    1fx2y             2.093740      17.358638
                         23       1    1fx2z             2.093740      17.358638
                         23       1    1fxy2             2.093740      17.358638
                         23       1    1fxyz             2.093740      30.066042
                         23       1    1fxz2             2.093740      17.358638
                         23       1    1fy3              2.093740       7.763019
                         23       1    1fy2z             2.093740      17.358638
                         23       1    1fyz2             2.093740      17.358638
                         23       1    1fz3              2.093740       7.763019

                         24       1    1dx2              2.719410       9.478512
                         24       1    1dxy              2.719410      16.417264
                         24       1    1dxz              2.719410      16.417264
                         24       1    1dy2              2.719410       9.478512
                         24       1    1dyz              2.719410      16.417264
                         24       1    1dz2              2.719410       9.478512

                         25       1    1px               2.756880       5.063635
                         25       1    1py               2.756880       5.063635
                         25       1    1pz               2.756880       5.063635

                         26       1    1hx5              3.223120      33.284552
                         26       1    1hx4y             3.223120      99.853655
                         26       1    1hx4z             3.223120      99.853655
                         26       1    1hx3y2            3.223120     152.528977
                         26       1    1hx3yz            3.223120     264.187938
                         26       1    1hx3z2            3.223120     152.528977
                         26       1    1hx2y3            3.223120     152.528977
                         26       1    1hx2y2z           3.223120     341.065161
                         26       1    1hx2yz2           3.223120     341.065161
                         26       1    1hx2z3            3.223120     152.528977
                         26       1    1hxy4             3.223120      99.853655
                         26       1    1hxy3z            3.223120     264.187938
                         26       1    1hxy2z2           3.223120     341.065161
                         26       1    1hxyz3            3.223120     264.187938
                         26       1    1hxz4             3.223120      99.853655
                         26       1    1hy5              3.223120      33.284552
                         26       1    1hy4z             3.223120      99.853655
                         26       1    1hy3z2            3.223120     152.528977
                         26       1    1hy2z3            3.223120     152.528977
[...]
 pw_poisson_solve                   454  8.4    5.989    7.497  212.095  212.365
 fft_wrap_pw1pw2_250               4961 11.6    8.587    9.978  201.726  207.651
 fft3d_ps                          6989 12.3   76.242   95.686  172.428  180.003
 qs_energies_properties               1  3.0    0.000    0.000  153.470  153.470
 tddfpt                               1  4.0    0.000    0.001  153.469  153.470
 tddfpt_energies                      1  5.0    0.000    0.001  153.439  153.439
 tddfpt_davidson_solver               1  6.0    0.001    0.002  152.427  152.428
 tddfpt_compute_Aop_evects            6  7.0    0.000    0.000  151.572  151.572
 fhxc_kernel                          6  8.0    0.005    0.006  140.887  140.888
 ps_wavelet_solve                   454  9.4  101.844  117.369  129.972  131.932
 qs_rho_update_rho_low              456  5.9    0.005    0.005  109.981  109.986
 calculate_rho_elec                 456  6.9    2.217    2.630  109.801  109.804
 mp_alltoall_d54                    454 10.4   16.651   99.783   16.651   99.783
 xc_pw_derive                      2025 11.0    0.023    0.029   90.875   92.066
 mp_alltoall_z22v                  6989 14.3   80.900   87.484   80.900   87.484
 qs_vxc_create                      352  8.0    0.004    0.004   82.261   82.262
 density_rs2pw                      456  7.9    0.027    0.033   74.095   75.454
 xc_rho_set_and_dset_create         353 10.0    0.824    1.054   50.891   59.134
 tddfpt_apply_coulomb               102  9.0    0.002    0.003   58.419   58.700
 yz_to_x                           3158 13.1    5.097    6.185   47.564   53.098
 x_to_yz                           3155 13.7    9.431   11.029   47.812   49.230
 transfer_rs2pw                    2280  9.2    0.063    0.087   43.830   44.428
 xc_pw_divergence                   220 10.5    0.009    0.012   41.805   43.037
 xc_vxc_pw_create                   118  9.0    0.754    0.891   42.194   42.195
 xc_exc_calc                        234  9.0    1.136    1.349   40.063   40.063
 prepare_gapw_den                   455  8.2    0.006    0.007   38.696   39.315
 put_rho0_on_grid                   455  9.2    2.237    2.699   36.860   37.479
 tddfpt_apply_xc_analytic           102  9.0    0.145    0.191   33.942   34.401
 mp_alltoall_d11v                 13506 11.9   23.244   34.216   23.244   34.216
 transfer_pw2rs                    1335 10.5    0.021    0.026   32.513   33.064
 grid_collocate_task_list           456  7.9   31.769   32.743   31.769   32.743
 integrate_v_rspace                 220  9.0    0.005    0.006   30.684   31.029
 potential_pw2rs                    220 10.0    0.076    0.084   29.971   30.334
 mp_waitany                       67890 11.7   26.777   28.470   26.777   28.470
 transfer_rs2pw_250                 912 10.6   11.262   12.158   26.045   26.780
 integrate_four_center              556  9.4   11.760   24.367   26.073   26.423
 mp_sync                           3187 11.3   12.840   24.384   12.840   24.384
 transfer_pw2rs_250                 675 11.0    8.007    8.706   22.190   22.888
 integrate_vhg0_rspace              454  8.4    0.080    0.117   20.686   21.144
 xc_calc_2nd_deriv_analytical       510 10.0    1.215    1.308   20.233   20.289
 mp_alltoall_d45                    455 10.5   10.448   19.454   10.448   19.454
 hfx_ks_matrix                      352  8.0    0.012    0.015   16.911   17.247
 mp_sum_d                          8122  9.9   12.882   16.415   12.882   16.415
 sum_up_and_integrate               118  8.0    0.001    0.002   16.000   16.045
 pw_scatter_p                      3375 12.7   12.340   12.703   12.340   12.703
 xc_functional_eval                2169 11.0    0.003    0.008    3.510   11.318
 pbe_lda_eval                      2169 12.0    3.507   11.310    3.507   11.310
 cp2k_distribution_to_z_slices      454  9.4    4.350    4.735   10.438   11.123
 pw_gather_p                       3614 11.9    9.692   10.860    9.692   10.860
 pw_derive                         3387 11.4    9.986   10.646    9.986   10.646
 tddfpt_apply_hfx                     6  8.0    0.002    0.002   10.282   10.283
 transfer_rs2pw_30                  456  9.9    4.289    4.499   10.008   10.256
 tddft_hfx_matrix                   204  9.0    0.005    0.006    9.184    9.238
 qs_scf_new_mos                     352  5.0    0.002    0.002    8.784    8.810
 qs_scf_loop_do_ot                  352  6.0    0.002    0.002    8.782    8.808
 ot_scf_mini                        352  7.0    0.005    0.005    8.225    8.251
 dbcsr_multiply_generic            5100  9.8    0.205    0.221    8.007    8.084
 pw_copy                           5441 10.6    7.103    7.559    7.103    7.559
 mp_sendrecv_dv                   86640 10.9    7.067    7.364    7.067    7.364
 fft_wrap_pw1pw2_90                 676 10.6    0.235    0.427    5.874    7.315
 pw_poisson_set                     455  9.4    0.015    0.017    7.020    7.155
 rs_grid_zero                      1805 11.0    6.504    6.778    6.504    6.778
 mp_waitall_1                    646282 13.4    4.697    6.658    4.697    6.658
 transfer_pw2rs_30                  220 12.0    3.746    4.220    6.132    6.423
 transfer_rs2pw_90                  456  9.9    1.619    1.767    5.573    6.035
 pw_copy_to_array                  3614 11.9    3.538    4.564    3.538    4.564
 pw_integral_ab_c1d_c1d_gs          454  9.4    3.319    3.351    3.858    4.361
 multiply_cannon                   5100 10.8    0.457    0.471    4.067    4.229
 qs_ot_get_p                        353  8.0    0.002    0.002    3.820    3.848
 pw_axpy                           3480  9.5    3.245    3.473    3.245    3.473
 transfer_pw2rs_90                  220 12.0    0.821    0.958    3.063    3.382
 multiply_cannon_loop              5100 11.8    0.761    0.799    2.987    3.161
 pw_copy_from_array                3375 12.7    2.421    3.101    2.421    3.101
 init_scf_loop                        1  4.0    0.000    0.000    2.971    2.971
 mp_isend_dv                     273619 13.4    1.864    2.924    1.864    2.924
 qs_ot_p2m_diag                     352  9.0    0.007    0.009    2.814    2.826
 ot_mini                            352  8.0    0.002    0.002    2.667    2.689
 gaVxcgb_GC                         440  9.5    0.027    2.619    0.027    2.619
 mp_isend_dm3                     13578 11.7    1.235    2.606    1.235    2.606
 cp_dbcsr_sm_fm_multiply            661  8.5    0.012    0.014    2.516    2.582
 pw_zero                           3210 10.4    2.324    2.538    2.324    2.538
 calculate_vxc_atom                 352  8.0    0.103    0.763    2.523    2.524
 make_m2s                         10200 10.8    0.168    0.184    2.361    2.464
 qs_ot_get_derivative               118  9.0    0.001    0.001    2.448    2.451
 mp_irecv_dm3                     13578 11.7    1.226    2.213    1.226    2.213
 transfer_rs2pw_10                  456  9.9    0.792    0.860    2.140    2.199
 mp_sum_dm                         2757  8.4    1.722    2.172    1.722    2.172
 mp_isendrecv_dv                 147440 11.8    1.071    2.127    1.071    2.127
 dbcsr_complete_redistribute       2797 10.9    0.092    0.121    2.000    2.063
 qs_ot_get_derivative_diag          117 10.0    0.002    0.003    1.895    1.897
 calculate_xc_2nd_deriv_atom        102  9.0    0.016    0.402    0.042    1.870
 calculate_rho_atom                 910  9.2    0.625    1.766    0.625    1.766
 make_images                      10200 11.8    0.399    0.427    1.709    1.734
 mp_max_i                           917  6.0    1.264    1.721    1.264    1.721
 cp_dbcsr_syevd                     352 10.0    0.019    0.020    1.704    1.707
 copy_dbcsr_to_fm                  1059  9.9    0.013    0.014    1.572    1.587
 fft_wrap_pw1pw2_30                 676 10.6    0.043    0.051    1.226    1.373
 create_qs_kind_set                   1  2.0    0.000    0.000    1.350    1.351
 read_qs_kind                         2  3.0    0.732    0.745    1.350    1.351
 mp_sum_dv                        13419 11.1    1.307    1.343    1.307    1.343
 scale_and_distribute               908 10.4    1.128    1.275    1.128    1.275
 transfer_pw2rs_10                  220 12.0    0.403    0.453    1.108    1.270
 offload_free_buffer                462  9.3    0.788    1.267    0.788    1.267
 copy_fm_to_dbcsr                  1736  9.9    0.008    0.008    1.143    1.205
 Vh_1c_gg_integrals                 454  8.4    0.029    0.320    0.942    1.186
 cp_fm_syevd                        400 10.6    0.002    0.003    1.082    1.085
 qs_ot_get_orbitals                 352  8.0    0.001    0.001    1.076    1.078
 update_ks_atom                     454  8.2    0.019    0.042    0.416    1.032
 mp_bcast_dm                       2171  9.7    0.405    1.024    0.405    1.024
 cp_dbcsr_sm_fm_multiply_core       661  9.5    0.001    0.002    0.881    0.905
 mp_alltoall_i11v                  9802 11.9    0.855    0.856    0.855    0.856
 mp_sum_l                         23661 10.7    0.768    0.851    0.768    0.851
 pw_poisson_rebuild                 454  9.4    0.000    0.001    0.778    0.793
 ps_wavelet_create                    1 10.0    0.000    0.000    0.778    0.793
 RS_z_slice_distribution              1 11.0    0.679    0.732    0.778    0.793
 rs_gather_matrices                 220 10.0    0.002    0.007    0.651    0.752
 make_images_sizes                10200 12.8    0.010    0.012    0.699    0.733
 cp_fm_redistribute_end             400 11.6    0.463    0.720    0.473    0.733
 mp_alltoall_i44                  10200 13.8    0.688    0.722    0.688    0.722
 multiply_cannon_metrocomm4      112200 12.8    0.330    0.345    0.635    0.675
 multiply_cannon_metrocomm2      107100 12.8    0.316    0.331    0.581    0.623
 parser_read_line                155302  4.0    0.054    0.059    0.618    0.623
 grid_integrate_task_list           220 10.0    0.056    0.621    0.056    0.621
 dbcsr_desymmetrize_deep           1060 10.9    0.020    0.021    0.603    0.612
 multiply_cannon_metrocomm3      122400 12.8    0.193    0.202    0.508    0.603
 parser_read_line_low               168  5.0    0.051    0.269    0.564    0.570
 calculate_dm_sparse                353  7.0    0.001    0.001    0.558    0.560
 tddfpt_orthonormalize_psi1_psi       7  6.9    0.008    0.009    0.544    0.545
 broadcast_input_information        168  6.0    0.125    0.134    0.513    0.521
 cp_fm_syevd_base                   400 11.6    0.256    0.516    0.256    0.516
 dbcsr_make_images_dense           7928 11.9    0.120    0.130    0.355    0.502
 integrate_four_center_getP         556 10.4    0.079    0.086    0.471    0.500
 integrate_four_center_main         556 10.4    0.077    0.266    0.087    0.498
 fft_wrap_pw1pw2_10                 676 10.6    0.011    0.012    0.469    0.498
 multiply_cannon_metrocomm1      122400 12.8    0.134    0.140    0.330    0.474
 cp_dbcsr_plus_fm_fm_t              103  9.0    0.001    0.002    0.456    0.460
 mp_rank_compare                   6989 13.3    0.420    0.444    0.420    0.444
 prepare_dr1dr                      510 11.0    0.362    0.427    0.362    0.427
 calc_screening_functions             1 10.0    0.231    0.234    0.421    0.425
 tddfpt_apply_energy_diff             6  8.0    0.000    0.000    0.403    0.403
 dbcsr_create_new                103541 12.4    0.282    0.293    0.379    0.391
 powell_optimize                 152660 11.0    0.375    0.387    0.375    0.387
 integrate_four_center_dist_KS      556 10.4    0.079    0.084    0.380    0.382
 hybrid_alltoall_any              11260 13.6    0.087    0.090    0.376    0.380
 vxc_of_r_new                      1408  9.0    0.000    0.029    0.004    0.367
 mp_allgather_i34                  5100 11.8    0.330    0.366    0.330    0.366
 mp_alltoall_i22                   3974 11.9    0.295    0.363    0.295    0.363
 tddfpt_print_nto_analysis            1  6.0    0.002    0.003    0.356    0.360
 dbcsr_make_dense_low             23225 12.8    0.114    0.117    0.172    0.359
 cp_fm_redistribute_start           400 11.6    0.276    0.287    0.351    0.355
 init_scf_run                         1  3.0    0.000    0.000    0.336    0.336
 scf_env_initial_rho_setup            1  4.0    0.000    0.000    0.336    0.336
 tddfpt_construct_ground_state_       1  6.0    0.000    0.000    0.325    0.326
 pw_scale                           676  9.5    0.255    0.323    0.255    0.323
 arnoldi_extremal                   353  9.0    0.006    0.007    0.302    0.311
 arnoldi_normal_ev                  354 10.0    0.006    0.007    0.298    0.308
 dbcsr_finalize                   10593 11.3    0.051    0.067    0.236    0.308
 qs_init_subsys                       1  2.0    0.007    0.008    0.305    0.305
 tddfpt_compute_residual_vects        5  7.0    0.000    0.000    0.304    0.304
 mp_irecv_dv                     273658 13.4    0.205    0.299    0.205    0.299
 qs_env_setup                         1  3.0    0.000    0.000    0.294    0.297
 qs_env_rebuild_pw_env                2  3.5    0.000    0.000    0.293    0.296
 pw_env_rebuild                       1  5.0    0.001    0.001    0.292    0.296
 calc_pair_dist_radii                 1 10.0    0.094    0.098    0.279    0.292
 make_images_data                 10200 12.8    0.097    0.128    0.210    0.291
 mp_alltoall_z11v                   676 13.6    0.264    0.290    0.264    0.290
 pw_grid_setup                        4  6.0    0.000    0.000    0.281    0.285
 pw_grid_setup_internal               4  7.0    0.006    0.011    0.281    0.285
 mp_bcast_i_src                     672  7.0    0.216    0.251    0.216    0.251
 dbcsr_special_finalize           25500 12.8    0.060    0.062    0.194    0.235
 create_kernel_env                    1  6.0    0.000    0.000    0.204    0.235
 xc_prep_2nd_deriv                    1  7.0    0.000    0.000    0.204    0.235
 integrate_four_center_bin        43876 11.4    0.011    0.232    0.011    0.232
 multiply_cannon_multrec         122400 12.8    0.152    0.196    0.173    0.217
 parallel_gemm_fm                   876  8.3    0.001    0.001    0.187    0.207
 ot_new_cg_direction                118  9.0    0.001    0.001    0.205    0.206
 parallel_gemm_fm_gemm              876  9.3    0.001    0.001    0.186    0.205
 cp_fm_gemm                         876 10.3    0.185    0.204    0.185    0.204
 mp_isend_iv                     239696 13.8    0.181    0.202    0.181    0.202
 mp_bcast_am_src                    168  7.0    0.154    0.172    0.168    0.189
 xz_to_yz                           456 11.9    0.016    0.019    0.176    0.187
 pw_grid_sort                         4  8.0    0.108    0.134    0.157    0.186
 make_dense_data                  23225 13.8    0.008    0.080    0.010    0.186
 apply_preconditioner_dbcsr         119 10.0    0.000    0.000    0.182    0.186
 apply_single                       119 11.0    0.000    0.000    0.182    0.186
 xc_2nd_deriv_of_r                  408 10.0    0.000    0.033    0.002    0.184
 mp_cart_sub                       2121 11.9    0.182    0.184    0.182    0.184
 calculate_rho_atom_coeff           456  6.9    0.022    0.061    0.175    0.180
 build_subspace                     354 11.0    0.009    0.010    0.176    0.180
 dbcsr_iterator_start             73058 12.5    0.068    0.145    0.084    0.174
 dbcsr_destroy                   100929 11.5    0.122    0.126    0.159    0.172
 dbcsr_merge_all                   9375 12.2    0.106    0.131    0.130    0.171
 rs_grid_create                     460  9.4    0.002    0.003    0.031    0.171
 offload_create_buffer              462 10.4    0.028    0.168    0.028    0.168
 mp_cart_create                    1972 10.6    0.148    0.157    0.151    0.161
 dbcsr_matrix_vector_mult          1749 12.0    0.017    0.017    0.089    0.159
 yz_to_xz                           220 14.0    0.012    0.013    0.117    0.137
 dbcsr_data_new                  274318 13.0    0.107    0.136    0.107    0.136
 dbcsr_new_transposed              2437 10.8    0.014    0.014    0.115    0.131
 dbcsr_data_release              461308 13.2    0.113    0.130    0.113    0.130
 dbcsr_make_dense                  3405 11.1    0.014    0.015    0.071    0.124
 mp_irecv_iv                     239696 13.8    0.104    0.122    0.104    0.122
 rs_scatter_matrices                456  7.9    0.003    0.006    0.115    0.118
 setup_buffer_matrices            10200 11.8    0.037    0.039    0.112    0.115
 cp_fm_geeig                         20  7.0    0.001    0.001    0.115    0.115
 dbcsr_iterator_stop              73058 12.5    0.050    0.095    0.062    0.112
 mp_sum_b                          7929 10.9    0.108    0.112    0.108    0.112
 cp_fm_trace_a1b1t1_aa             5463  8.0    0.025    0.027    0.110    0.111
 dbcsr_work_create                36052 12.5    0.062    0.066    0.087    0.100
 dbcsr_make_undense                3405 11.1    0.022    0.042    0.042    0.093
 xc_pw_smooth                       118 10.0    0.000    0.001    0.062    0.088
 dbcsr_work_destroy_all           36052 13.4    0.057    0.063    0.076    0.087
 arnoldi_init                       354 11.0    0.004    0.005    0.079    0.086
 quick_finalize                   18202 14.0    0.038    0.047    0.063    0.082
 dbcsr_add_d                       1243  9.7    0.002    0.003    0.008    0.080
 dbcsr_add_anytype                 1243 10.7    0.002    0.012    0.006    0.078
 dbcsr_redistribute                 117 12.0    0.003    0.004    0.074    0.076
 dbcsr_mm_multrec_init             5100 11.8    0.009    0.011    0.066    0.073
 scf_post_calculation_gpw             1  3.0    0.000    0.000    0.071    0.071
 write_available_results              1  4.0    0.000    0.000    0.071    0.071
 write_mo_free_results                1  5.0    0.006    0.008    0.071    0.071
 dbcsr_col_vec_to_rep_row          1969 12.6    0.014    0.015    0.031    0.070
 dbcsr_merge_single_wm             8475 13.2    0.040    0.047    0.046    0.069
 dbcsr_make_dists_dense            3964 10.9    0.041    0.056    0.052    0.067
 qs_energies_init_hamiltonians        1  3.0    0.000    0.000    0.066    0.066
 write_mo_set_to_restart            352  5.0    0.005    0.033    0.063    0.066
 tddfpt_orthogonalize_psi1_psi0       7  6.9    0.000    0.000    0.047    0.065
 dbcsr_switch_data_area           50542 13.9    0.046    0.048    0.062    0.064
 dbcsr_make_index_list            25500 11.8    0.058    0.064    0.058    0.064
 dbcsr_mm_csr_init                 5100 12.8    0.045    0.050    0.057    0.063
 copy_fm_to_dbcsr_bc               1736 10.9    0.018    0.020    0.052    0.060
 build_core_hamiltonian_matrix        1  4.0    0.000    0.000    0.060    0.060
 mp_cart_rank                    174444 10.0    0.052    0.060    0.052    0.060
 setup_rec_index_2d               10200 11.8    0.057    0.059    0.057    0.059
 dbcsr_make_untransposed_blocks    6551 10.8    0.035    0.037    0.057    0.059
 dbcsr_make_index_exist          103541 13.4    0.055    0.059    0.055    0.059
 dbcsr_copy                        7271 10.0    0.024    0.026    0.055    0.058
 -------------------------------------------------------------------------------

 The number of warnings for this run is : 2
 
 -------------------------------------------------------------------------------
  **** **** ******  **  PROGRAM ENDED AT                 2025-04-23 18:44:07.393
 ***** ** ***  *** **   PROGRAM RAN ON                              i03r11c03s02
 **    ****   ******    PROGRAM RAN BY                                   di38fab
 ***** **    ** ** **   PROGRAM PROCESS ID                                725121
  **** **  *******  **  PROGRAM STOPPED IN /hppfs/scratch/04/di38fab/07_MOL_non_
                                           aug/05_MOL_non_aug/05_MOL/W4-11+ALK/b
                                           eo/SZV/TDDFT
