 DBCSR| CPU Multiplication driver                                           BLAS (U)
 DBCSR| Multrec recursion limit                                              512 (U)
 DBCSR| Multiplication stack size                                           1000 (D)
 DBCSR| Maximum elements for images                                    UNLIMITED (U)
 DBCSR| Multiplicative factor virtual images                                   1 (U)
 DBCSR| Use multiplication densification                                       T (D)
 DBCSR| Multiplication size stacks                                             3 (U)
 DBCSR| Use memory pool for CPU allocation                                     F (U)
 DBCSR| Number of 3D layers                                               SINGLE (U)
 DBCSR| Use MPI memory allocation                                              F (U)
 DBCSR| Use RMA algorithm                                                      F (U)
 DBCSR| Use Communication thread                                               T (U)
 DBCSR| Communication thread load                                             75 (D)
 DBCSR| MPI: My process id                                                     0
 DBCSR| MPI: Number of processes                                             192
 DBCSR| OMP: Current number of threads                                         4
 DBCSR| OMP: Max number of threads                                             4
 DBCSR| Split modifier for TAS multiplication algorithm                  1.0E+00 (U)


  **** **** ******  **  PROGRAM STARTED AT               2025-04-20 15:22:37.205
 ***** ** ***  *** **   PROGRAM STARTED ON                          i05r08c04s01
 **    ****   ******    PROGRAM STARTED BY                               di38fab
 ***** **    ** ** **   PROGRAM PROCESS ID                               3621757
  **** **  *******  **  PROGRAM STARTED IN /hppfs/scratch/04/di38fab/05_MOL/W4-1
                                           1+ALK/alf/DZVP/TDDFT/1e-4

 CP2K| version string:                 CP2K version 2025.1 (Development Version)
 CP2K| source code revision number:                             unknown revision
 CP2K| cp2kflags: omp libint fftw3 libxc parallel scalapack max_contr=4         
 CP2K| is freely available from                            https://www.cp2k.org/
 CP2K| Program compiled at                         Thu Apr 10 16:20:23 CEST 2025
 CP2K| Program compiled on                                               login01
 CP2K| Program compiled for                                        Supermuc-foss
 CP2K| Data directory path                  /hppfs/work/pn36zo/di38fab/cp2k/data
 CP2K| Input file name                                                    GW.inp

 GLOBAL| Force Environment number                                              1
 GLOBAL| Basis set file name            /hppfs/scratch/04/di38fab/04_TMD/BASIS_A
 GLOBAL| Potential file name            /hppfs/work/pn36zo/di38fab/cp2k/data/ALL
 GLOBAL| MM Potential file name                                     MM_POTENTIAL
 GLOBAL| Coordinate file name                                      __STD_INPUT__
 GLOBAL| Method name                                                        CP2K
 GLOBAL| Project name                                                       MoS2
 GLOBAL| Run type                                                         ENERGY
 GLOBAL| FFT library                                                       FFTW3
 GLOBAL| Diagonalization library                                       ScaLAPACK
 GLOBAL| DGEMM library                                                      BLAS
 GLOBAL| Orthonormality check for eigenvectors                          DISABLED
 GLOBAL| Matrix multiplication library                                 ScaLAPACK
 GLOBAL| All-to-all communication in single precision                          F
 GLOBAL| FFTs using library dependent lengths                                  F
 GLOBAL| Grid backend                                                       AUTO
 GLOBAL| Global print level                                               MEDIUM
 GLOBAL| MPI I/O enabled                                                       T
 GLOBAL| Total number of message passing processes                           192
 GLOBAL| Number of threads for this process                                    4
 GLOBAL| This output is from process                                           0
 GLOBAL| OpenMP stack size per thread (OMP_STACKSIZE)                    default
 GLOBAL| CPU model name             Intel(R) Xeon(R) Platinum 8174 CPU @ 3.10GHz

 MEMORY| system memory details [Kb]
 MEMORY|                        rank 0           min           max       average
 MEMORY| MemTotal             98436660      98436660      98436708      98436664
 MEMORY| MemFree              83780012      83516644      84730748      83959842
 MEMORY| Buffers                     0             0             0             0
 MEMORY| Cached                2403684       2376820       2411044       2395657
 MEMORY| Slab                  1246312       1134876       1260392       1226034
 MEMORY| SReclaimable           276020        255008        283300        271041
 MEMORY| MemLikelyFree        86459716      86203108      87365020      86626540


 *** Fundamental physical constants (SI units) ***

 *** Literature: B. J. Mohr and B. N. Taylor,
 ***             CODATA recommended values of the fundamental physical
 ***             constants: 2006, Web Version 5.1
 ***             http://physics.nist.gov/constants

 Speed of light in vacuum [m/s]                             2.99792458000000E+08
 Magnetic constant or permeability of vacuum [N/A**2]       1.25663706143592E-06
 Electric constant or permittivity of vacuum [F/m]          8.85418781762039E-12
 Planck constant (h) [J*s]                                  6.62606896000000E-34
 Planck constant (h-bar) [J*s]                              1.05457162825177E-34
 Elementary charge [C]                                      1.60217648700000E-19
 Electron mass [kg]                                         9.10938215000000E-31
 Electron g factor [ ]                                     -2.00231930436220E+00
 Proton mass [kg]                                           1.67262163700000E-27
 Fine-structure constant                                    7.29735253760000E-03
 Rydberg constant [1/m]                                     1.09737315685270E+07
 Avogadro constant [1/mol]                                  6.02214179000000E+23
 Boltzmann constant [J/K]                                   1.38065040000000E-23
 Atomic mass unit [kg]                                      1.66053878200000E-27
 Bohr radius [m]                                            5.29177208590000E-11

 *** Conversion factors ***

 [u] -> [a.u.]                                              1.82288848426455E+03
 [Angstrom] -> [Bohr] = [a.u.]                              1.88972613288564E+00
 [a.u.] = [Bohr] -> [Angstrom]                              5.29177208590000E-01
 [a.u.] -> [s]                                              2.41888432650478E-17
 [a.u.] -> [fs]                                             2.41888432650478E-02
 [a.u.] -> [J]                                              4.35974393937059E-18
 [a.u.] -> [N]                                              8.23872205491840E-08
 [a.u.] -> [K]                                              3.15774647902944E+05
 [a.u.] -> [kJ/mol]                                         2.62549961709828E+03
 [a.u.] -> [kcal/mol]                                       6.27509468713739E+02
 [a.u.] -> [Pa]                                             2.94210107994716E+13
 [a.u.] -> [bar]                                            2.94210107994716E+08
 [a.u.] -> [atm]                                            2.90362800883016E+08
 [a.u.] -> [eV]                                             2.72113838565563E+01
 [a.u.] -> [Hz]                                             6.57968392072181E+15
 [a.u.] -> [1/cm] (wave numbers)                            2.19474631370540E+05
 [a.u./Bohr**2] -> [1/cm]                                   5.14048714338585E+03
 

 CELL_TOP| Volume [angstrom^3]:                                     27000.000000
 CELL_TOP| Vector a [angstrom    30.000     0.000     0.000   |a| =    30.000000
 CELL_TOP| Vector b [angstrom     0.000    30.000     0.000   |b| =    30.000000
 CELL_TOP| Vector c [angstrom     0.000     0.000    30.000   |c| =    30.000000
 CELL_TOP| Angle (b,c), alpha [degree]:                                90.000000
 CELL_TOP| Angle (a,c), beta  [degree]:                                90.000000
 CELL_TOP| Angle (a,b), gamma [degree]:                                90.000000
 CELL_TOP| Numerically orthorhombic:                                         YES
 CELL_TOP| Periodicity                                                      NONE

 GENERATE|  Preliminary Number of Bonds generated:                             0
 GENERATE|  Achieved consistency in connectivity generation.

 CELL| Volume [angstrom^3]:                                         27000.000000
 CELL| Vector a [angstrom]:      30.000     0.000     0.000   |a| =    30.000000
 CELL| Vector b [angstrom]:       0.000    30.000     0.000   |b| =    30.000000
 CELL| Vector c [angstrom]:       0.000     0.000    30.000   |c| =    30.000000
 CELL| Angle (b,c), alpha [degree]:                                    90.000000
 CELL| Angle (a,c), beta  [degree]:                                    90.000000
 CELL| Angle (a,b), gamma [degree]:                                    90.000000
 CELL| Numerically orthorhombic:                                             YES
 CELL| Periodicity                                                          NONE

 CELL_REF| Volume [angstrom^3]:                                     27000.000000
 CELL_REF| Vector a [angstrom    30.000     0.000     0.000   |a| =    30.000000
 CELL_REF| Vector b [angstrom     0.000    30.000     0.000   |b| =    30.000000
 CELL_REF| Vector c [angstrom     0.000     0.000    30.000   |c| =    30.000000
 CELL_REF| Angle (b,c), alpha [degree]:                                90.000000
 CELL_REF| Angle (a,c), beta  [degree]:                                90.000000
 CELL_REF| Angle (a,b), gamma [degree]:                                90.000000
 CELL_REF| Numerically orthorhombic:                                         YES
 CELL_REF| Periodicity                                                      NONE

 *******************************************************************************
 *******************************************************************************
 **                                                                           **
 **     #####                         ##              ##                      **
 **    ##   ##            ##          ##              ##                      **
 **   ##     ##                       ##            ######                    **
 **   ##     ##  ##   ##  ##   #####  ##  ##   ####   ##    #####    #####    **
 **   ##     ##  ##   ##  ##  ##      ## ##   ##      ##   ##   ##  ##   ##   **
 **   ##  ## ##  ##   ##  ##  ##      ####     ###    ##   ######   ######    **
 **    ##  ###   ##   ##  ##  ##      ## ##      ##   ##   ##       ##        **
 **     #######   #####   ##   #####  ##  ##  ####    ##    #####   ##        **
 **           ##                                                    ##        **
 **                                                                           **
 **                                                ... make the atoms dance   **
 **                                                                           **
 **            Copyright (C) by CP2K developers group (2000-2025)             **
 **                      J. Chem. Phys. 152, 194103 (2020)                    **
 **                                                                           **
 *******************************************************************************

 DFT| Spin restricted Kohn-Sham (RKS) calculation                            RKS
 DFT| Multiplicity                                                             1
 DFT| Number of spin states                                                    1
 DFT| Charge                                                                   0
 DFT| Self-interaction correction (SIC)                                       NO
 DFT| Cutoffs: density                                              1.000000E-10
 DFT|          gradient                                             1.000000E-10
 DFT|          tau                                                  1.000000E-10
 DFT|          cutoff_smoothing_range                               0.000000E+00
 DFT| XC density smoothing                                                  NONE
 DFT| XC derivatives                                                          PW

 FUNCTIONAL| PBE:
 FUNCTIONAL| J.P.Perdew, K.Burke, M.Ernzerhof, Phys. Rev. Letter, vol. 77, n 18,
 FUNCTIONAL|  pp. 3865-3868, (1996)sx=0.750sc=1.000{spin unpolarized}           


 QS| Method:                                                                GAPW
 QS| Density plane wave grid type                        NON-SPHERICAL FULLSPACE
 QS| Number of grid levels:                                                    4
 QS| Density cutoff [a.u.]:                                                250.0
 QS| Multi grid cutoff [a.u.]: 1) grid level                               250.0
 QS|                           2) grid level                                83.3
 QS|                           3) grid level                                27.8
 QS|                           4) grid level                                 9.3
 QS| Grid level progression factor:                                          3.0
 QS| Relative density cutoff [a.u.]:                                        50.0
 QS| Interaction thresholds: eps_pgf_orb:                                1.0E-12
 QS|                         eps_filter_matrix:                          0.0E+00
 QS|                         eps_core_charge:                            1.0E-14
 QS|                         eps_rho_gspace:                             1.0E-12
 QS|                         eps_rho_rspace:                             1.0E-12
 QS|                         eps_gvg_rspace:                             1.0E-06
 QS|                         eps_ppl:                                    1.0E-02
 QS|                         eps_ppnl:                                   1.0E-08
 QS| GAPW|      One center basis from orbital basis primitives
 QS| GAPW|                   eps_fit:                                    1.0E-04
 QS| GAPW|                   eps_iso:                                    1.0E-12
 QS| GAPW|                   eps_svd:                                    1.0E-08
 QS| GAPW|                   eps_cpc:                                    1.0E-12
 QS| GAPW|   atom-r-grid: quadrature:                                     GC_LOG
 QS| GAPW|      atom-s-grid:  max l :                                          6
 QS| GAPW|      max_l_rho0 :                                                   2


 ATOMIC KIND INFORMATION

  1. Atomic kind: AL                                    Number of atoms:       1

     Orbital Basis Set                                        aug-DZVP-MOLOPT-ae

       Number of orbital shell sets:                                           3
       Number of orbital shells:                                              12
       Number of primitive Cartesian functions:                               18
       Number of Cartesian basis functions:                                   39
       Number of spherical basis functions:                                   34
       Norm type:                                                              2

       Normalised Cartesian orbitals:

                        Set   Shell   Orbital            Exponent    Coefficient

                          1       1    1s                0.050000       0.073852
                                                         0.071899       0.007745
                                                         0.280430      -0.025947
                                                         1.054693      -0.008097
                                                         3.275178       0.024993
                                                        10.287012       0.000000
                                                        33.685547       0.000000
                                                       145.052984       0.000000

                          1       2    2px               0.050000       0.000000
                                                         0.071899       0.003114
                                                         0.280430       0.009915
                                                         1.054693       0.502277
                                                         3.275178       3.221630
                                                        10.287012       7.036813
                                                        33.685547       8.394471
                                                       145.052984       8.055919
                          1       2    2py               0.050000       0.000000
                                                         0.071899       0.003114
                                                         0.280430       0.009915
                                                         1.054693       0.502277
                                                         3.275178       3.221630
                                                        10.287012       7.036813
                                                        33.685547       8.394471
                                                       145.052984       8.055919
                          1       2    2pz               0.050000       0.000000
                                                         0.071899       0.003114
                                                         0.280430       0.009915
                                                         1.054693       0.502277
                                                         3.275178       3.221630
                                                        10.287012       7.036813
                                                        33.685547       8.394471
                                                       145.052984       8.055919

                          1       3    3px               0.050000       0.000000
                                                         0.071899       0.003340
                                                         0.280430       0.273370
                                                         1.054693       0.107536
                                                         3.275178      -0.679716
                                                        10.287012      -0.248061
                                                        33.685547      -1.501528
                                                       145.052984      -0.286414
                          1       3    3py               0.050000       0.000000
                                                         0.071899       0.003340
                                                         0.280430       0.273370
                                                         1.054693       0.107536
                                                         3.275178      -0.679716
                                                        10.287012      -0.248061
                                                        33.685547      -1.501528
                                                       145.052984      -0.286414
                          1       3    3pz               0.050000       0.000000
                                                         0.071899       0.003340
                                                         0.280430       0.273370
                                                         1.054693       0.107536
                                                         3.275178      -0.679716
                                                        10.287012      -0.248061
                                                        33.685547      -1.501528
                                                       145.052984      -0.286414

                          1       4    4px               0.050000       0.000000
                                                         0.071899       0.054915
                                                         0.280430      -0.012957
                                                         1.054693      -0.336010
                                                         3.275178       0.497172
                                                        10.287012      -2.712852
                                                        33.685547       0.990171
                                                       145.052984      -2.746456
                          1       4    4py               0.050000       0.000000
                                                         0.071899       0.054915
                                                         0.280430      -0.012957
                                                         1.054693      -0.336010
                                                         3.275178       0.497172
                                                        10.287012      -2.712852
                                                        33.685547       0.990171
                                                       145.052984      -2.746456
                          1       4    4pz               0.050000       0.000000
                                                         0.071899       0.054915
                                                         0.280430      -0.012957
                                                         1.054693      -0.336010
                                                         3.275178       0.497172
                                                        10.287012      -2.712852
                                                        33.685547       0.990171
                                                       145.052984      -2.746456

                          1       5    5px               0.050000       0.033197
                                                         0.071899       0.001343
                                                         0.280430      -0.005713
                                                         1.054693      -0.012147
                                                         3.275178      -0.023104
                                                        10.287012       0.000000
                                                        33.685547       0.000000
                                                       145.052984       0.000000
                          1       5    5py               0.050000       0.033197
                                                         0.071899       0.001343
                                                         0.280430      -0.005713
                                                         1.054693      -0.012147
                                                         3.275178      -0.023104
                                                        10.287012       0.000000
                                                        33.685547       0.000000
                                                       145.052984       0.000000
                          1       5    5pz               0.050000       0.033197
                                                         0.071899       0.001343
                                                         0.280430      -0.005713
                                                         1.054693      -0.012147
                                                         3.275178      -0.023104
                                                        10.287012       0.000000
                                                        33.685547       0.000000
                                                       145.052984       0.000000

                          1       6    3dx2              0.050000       0.000000
                                                         0.071899       0.003955
                                                         0.280430       0.130438
                                                         1.054693       0.434431
                                                         3.275178      -0.104752
                                                        10.287012       2.249726
                                                        33.685547      -2.857210
                                                       145.052984     -21.471839
                          1       6    3dxy              0.050000       0.000000
                                                         0.071899       0.006850
                                                         0.280430       0.225925
                                                         1.054693       0.752456
                                                         3.275178      -0.181435
                                                        10.287012       3.896640
                                                        33.685547      -4.948833
                                                       145.052984     -37.190316
                          1       6    3dxz              0.050000       0.000000
                                                         0.071899       0.006850
                                                         0.280430       0.225925
                                                         1.054693       0.752456
                                                         3.275178      -0.181435
                                                        10.287012       3.896640
                                                        33.685547      -4.948833
                                                       145.052984     -37.190316
                          1       6    3dy2              0.050000       0.000000
                                                         0.071899       0.003955
                                                         0.280430       0.130438
                                                         1.054693       0.434431
                                                         3.275178      -0.104752
                                                        10.287012       2.249726
                                                        33.685547      -2.857210
                                                       145.052984     -21.471839
                          1       6    3dyz              0.050000       0.000000
                                                         0.071899       0.006850
                                                         0.280430       0.225925
                                                         1.054693       0.752456
                                                         3.275178      -0.181435
                                                        10.287012       3.896640
                                                        33.685547      -4.948833
                                                       145.052984     -37.190316
                          1       6    3dz2              0.050000       0.000000
                                                         0.071899       0.003955
                                                         0.280430       0.130438
                                                         1.054693       0.434431
                                                         3.275178      -0.104752
                                                        10.287012       2.249726
                                                        33.685547      -2.857210
                                                       145.052984     -21.471839

                          1       7    4dx2              0.050000      -0.000945
                                                         0.071899      -0.014750
                                                         0.280430       0.000073
                                                         1.054693       0.016233
                                                         3.275178       0.011531
                                                        10.287012       0.000000
                                                        33.685547       0.000000
                                                       145.052984       0.000000
                          1       7    4dxy              0.050000      -0.001637
                                                         0.071899      -0.025547
                                                         0.280430       0.000126
                                                         1.054693       0.028116
                                                         3.275178       0.019972
                                                        10.287012       0.000000
                                                        33.685547       0.000000
                                                       145.052984       0.000000
                          1       7    4dxz              0.050000      -0.001637
                                                         0.071899      -0.025547
                                                         0.280430       0.000126
                                                         1.054693       0.028116
                                                         3.275178       0.019972
                                                        10.287012       0.000000
                                                        33.685547       0.000000
                                                       145.052984       0.000000
                          1       7    4dy2              0.050000      -0.000945
                                                         0.071899      -0.014750
                                                         0.280430       0.000073
                                                         1.054693       0.016233
                                                         3.275178       0.011531
                                                        10.287012       0.000000
                                                        33.685547       0.000000
                                                       145.052984       0.000000
                          1       7    4dyz              0.050000      -0.001637
                                                         0.071899      -0.025547
                                                         0.280430       0.000126
                                                         1.054693       0.028116
                                                         3.275178       0.019972
                                                        10.287012       0.000000
                                                        33.685547       0.000000
                                                       145.052984       0.000000
                          1       7    4dz2              0.050000      -0.000945
                                                         0.071899      -0.014750
                                                         0.280430       0.000073
                                                         1.054693       0.016233
                                                         3.275178       0.011531
                                                        10.287012       0.000000
                                                        33.685547       0.000000
                                                       145.052984       0.000000

                          1       8    4fx3              0.050000       0.001298
                                                         0.071899       0.001020
                                                         0.280430       0.002904
                                                         1.054693      -0.043729
                                                         3.275178       0.058338
                                                        10.287012       0.000000
                                                        33.685547       0.000000
                                                       145.052984       0.000000
                          1       8    4fx2y             0.050000       0.002902
                                                         0.071899       0.002281
                                                         0.280430       0.006493
                                                         1.054693      -0.097781
                                                         3.275178       0.130447
                                                        10.287012       0.000000
                                                        33.685547       0.000000
                                                       145.052984       0.000000
                          1       8    4fx2z             0.050000       0.002902
                                                         0.071899       0.002281
                                                         0.280430       0.006493
                                                         1.054693      -0.097781
                                                         3.275178       0.130447
                                                        10.287012       0.000000
                                                        33.685547       0.000000
                                                       145.052984       0.000000
                          1       8    4fxy2             0.050000       0.002902
                                                         0.071899       0.002281
                                                         0.280430       0.006493
                                                         1.054693      -0.097781
                                                         3.275178       0.130447
                                                        10.287012       0.000000
                                                        33.685547       0.000000
                                                       145.052984       0.000000
                          1       8    4fxyz             0.050000       0.005027
                                                         0.071899       0.003951
                                                         0.280430       0.011246
                                                         1.054693      -0.169362
                                                         3.275178       0.225940
                                                        10.287012       0.000000
                                                        33.685547       0.000000
                                                       145.052984       0.000000
                          1       8    4fxz2             0.050000       0.002902
                                                         0.071899       0.002281
                                                         0.280430       0.006493
                                                         1.054693      -0.097781
                                                         3.275178       0.130447
                                                        10.287012       0.000000
                                                        33.685547       0.000000
                                                       145.052984       0.000000
                          1       8    4fy3              0.050000       0.001298
                                                         0.071899       0.001020
                                                         0.280430       0.002904
                                                         1.054693      -0.043729
                                                         3.275178       0.058338
                                                        10.287012       0.000000
                                                        33.685547       0.000000
                                                       145.052984       0.000000
                          1       8    4fy2z             0.050000       0.002902
                                                         0.071899       0.002281
                                                         0.280430       0.006493
                                                         1.054693      -0.097781
                                                         3.275178       0.130447
                                                        10.287012       0.000000
                                                        33.685547       0.000000
                                                       145.052984       0.000000
                          1       8    4fyz2             0.050000       0.002902
                                                         0.071899       0.002281
                                                         0.280430       0.006493
                                                         1.054693      -0.097781
                                                         3.275178       0.130447
                                                        10.287012       0.000000
                                                        33.685547       0.000000
                                                       145.052984       0.000000
                          1       8    4fz3              0.050000       0.001298
                                                         0.071899       0.001020
                                                         0.280430       0.002904
                                                         1.054693      -0.043729
                                                         3.275178       0.058338
                                                        10.287012       0.000000
                                                        33.685547       0.000000
                                                       145.052984       0.000000

                          2       1    1s               29.250065       0.768419
                                                         3.027549      -0.882021
                                                         1.086592      -0.381532
                                                         0.227406      -0.013757
                                                         0.093278       0.000688

                          2       2    2s               29.250065       0.029052
                                                         3.027549      -0.408883
                                                         1.086592       0.129479
                                                         0.227406       0.199996
                                                         0.093278       0.015852

                          2       3    3s               29.250065      -0.317877
                                                         3.027549       0.707193
                                                         1.086592      -0.352781
                                                         0.227406       0.014583
                                                         0.093278       0.122888

                          3       1    1s             5887.765650       2.607261
                                                       885.617931       5.037443
                                                       201.176620       7.019252
                                                        56.172899       7.204180
                                                        16.856998       2.478594

     RI Auxiliary Basis Set             RI_aug-DZVP-MOLOPT-ae_N_RI_056_s_p_d_f_g

       Number of orbital shell sets:                                          18
       Number of orbital shells:                                              18
       Number of primitive Cartesian functions:                               18
       Number of Cartesian basis functions:                                   68
       Number of spherical basis functions:                                   56
       Norm type:                                                              2

       Normalised Cartesian orbitals:

                        Set   Shell   Orbital            Exponent    Coefficient

                          1       1    8px               0.123662       0.104529
                          1       1    8py               0.123662       0.104529
                          1       1    8pz               0.123662       0.104529

                          2       1    1s                0.123997       0.148925

                          3       1   14dx2              0.161836       0.067966
                          3       1   14dxy              0.161836       0.117720
                          3       1   14dxz              0.161836       0.117720
                          3       1   14dy2              0.161836       0.067966
                          3       1   14dyz              0.161836       0.117720
                          3       1   14dz2              0.161836       0.067966

                          4       1   17fx3              0.166131       0.025940
                          4       1   17fx2y             0.166131       0.058003
                          4       1   17fx2z             0.166131       0.058003
                          4       1   17fxy2             0.166131       0.058003
                          4       1   17fxyz             0.166131       0.100465
                          4       1   17fxz2             0.166131       0.058003
                          4       1   17fy3              0.166131       0.025940
                          4       1   17fy2z             0.166131       0.058003
                          4       1   17fyz2             0.166131       0.058003
                          4       1   17fz3              0.166131       0.025940

                          5       1    2s                0.287508       0.279832

                          6       1    9px               0.313673       0.334608
                          6       1    9py               0.313673       0.334608
                          6       1    9pz               0.313673       0.334608

                          7       1   15dx2              0.483922       0.462132
                          7       1   15dxy              0.483922       0.800436
                          7       1   15dxz              0.483922       0.800436
                          7       1   15dy2              0.483922       0.462132
                          7       1   15dyz              0.483922       0.800436
                          7       1   15dz2              0.483922       0.462132

                          8       1   18gx4              0.673714       0.375615
                          8       1   18gx3y             0.673714       0.993783
                          8       1   18gx3z             0.673714       0.993783
                          8       1   18gx2y2            0.673714       1.282969
                          8       1   18gx2yz            0.673714       2.222167
                          8       1   18gx2z2            0.673714       1.282969
                          8       1   18gxy3             0.673714       0.993783
                          8       1   18gxy2z            0.673714       2.222167
                          8       1   18gxyz2            0.673714       2.222167
                          8       1   18gxz3             0.673714       0.993783
                          8       1   18gy4              0.673714       0.375615
                          8       1   18gy3z             0.673714       0.993783
                          8       1   18gy2z2            0.673714       1.282969
                          8       1   18gyz3             0.673714       0.993783
                          8       1   18gz4              0.673714       0.375615

                          9       1   10px               0.968155       1.368898
                          9       1   10py               0.968155       1.368898
                          9       1   10pz               0.968155       1.368898

                         10       1    3s                0.986163       0.705296

                         11       1   16dx2              3.088403      11.842516
                         11       1   16dxy              3.088403      20.511839
                         11       1   16dxz              3.088403      20.511839
                         11       1   16dy2              3.088403      11.842516
                         11       1   16dyz              3.088403      20.511839
                         11       1   16dz2              3.088403      11.842516

                         12       1    4s                3.993748       2.013472

                         13       1   11px               4.056640       8.206316
                         13       1   11py               4.056640       8.206316
                         13       1   11pz               4.056640       8.206316

                         14       1    5s               15.550141       5.580985

                         15       1   12px              16.189119      46.288074
                         15       1   12py              16.189119      46.288074
                         15       1   12pz              16.189119      46.288074

                         16       1    6s               57.198367      14.823400

                         17       1   13px              60.072516     238.388260
                         17       1   13py              60.072516     238.388260
                         17       1   13pz              60.072516     238.388260

                         18       1    7s              206.993431      38.893544

       Atomic covalent radius [Angstrom]:                                  1.180

       Atomic van der Waals radius [Angstrom]:                             1.840

     The atoms of this atomic kind are PAW atoms (GAPW):
       Hard Gaussian function radius:                                      1.512
       Rho0 radius:                                                        1.512
       Maximum GTO radius used for PAW projector construction:            24.566

     GAPW Soft Basis Set                                 aug-DZVP-MOLOPT-ae_soft

       Number of orbital shell sets:                                           3
       Number of orbital shells:                                              12
       Number of primitive Cartesian functions:                                9
       Number of Cartesian basis functions:                                   39
       Number of spherical basis functions:                                   34
       Norm type:                                                              2

       Normalised Cartesian orbitals:

                        Set   Shell   Orbital            Exponent    Coefficient

                          1       1    1s                0.050000       0.073852
                                                         0.071899       0.007745
                                                         0.280430      -0.025947
                                                         1.054693      -0.008097
                                                         3.275178       0.024993

                          1       2    2px               0.050000       0.000000
                                                         0.071899       0.003114
                                                         0.280430       0.009915
                                                         1.054693       0.502277
                                                         3.275178       3.221630
                          1       2    2py               0.050000       0.000000
                                                         0.071899       0.003114
                                                         0.280430       0.009915
                                                         1.054693       0.502277
                                                         3.275178       3.221630
                          1       2    2pz               0.050000       0.000000
                                                         0.071899       0.003114
                                                         0.280430       0.009915
                                                         1.054693       0.502277
                                                         3.275178       3.221630

                          1       3    3px               0.050000       0.000000
                                                         0.071899       0.003340
                                                         0.280430       0.273370
                                                         1.054693       0.107536
                                                         3.275178      -0.679716
                          1       3    3py               0.050000       0.000000
                                                         0.071899       0.003340
                                                         0.280430       0.273370
                                                         1.054693       0.107536
                                                         3.275178      -0.679716
                          1       3    3pz               0.050000       0.000000
                                                         0.071899       0.003340
                                                         0.280430       0.273370
                                                         1.054693       0.107536
                                                         3.275178      -0.679716

                          1       4    4px               0.050000       0.000000
                                                         0.071899       0.054915
                                                         0.280430      -0.012957
                                                         1.054693      -0.336010
                                                         3.275178       0.497172
                          1       4    4py               0.050000       0.000000
                                                         0.071899       0.054915
                                                         0.280430      -0.012957
                                                         1.054693      -0.336010
                                                         3.275178       0.497172
                          1       4    4pz               0.050000       0.000000
                                                         0.071899       0.054915
                                                         0.280430      -0.012957
                                                         1.054693      -0.336010
                                                         3.275178       0.497172

                          1       5    5px               0.050000       0.033197
                                                         0.071899       0.001343
                                                         0.280430      -0.005713
                                                         1.054693      -0.012147
                                                         3.275178      -0.023104
                          1       5    5py               0.050000       0.033197
                                                         0.071899       0.001343
                                                         0.280430      -0.005713
                                                         1.054693      -0.012147
                                                         3.275178      -0.023104
                          1       5    5pz               0.050000       0.033197
                                                         0.071899       0.001343
                                                         0.280430      -0.005713
                                                         1.054693      -0.012147
                                                         3.275178      -0.023104

                          1       6    3dx2              0.050000       0.000000
                                                         0.071899       0.003955
                                                         0.280430       0.130438
                                                         1.054693       0.434431
                                                         3.275178      -0.104752
                          1       6    3dxy              0.050000       0.000000
                                                         0.071899       0.006850
                                                         0.280430       0.225925
                                                         1.054693       0.752456
                                                         3.275178      -0.181435
                          1       6    3dxz              0.050000       0.000000
                                                         0.071899       0.006850
                                                         0.280430       0.225925
                                                         1.054693       0.752456
                                                         3.275178      -0.181435
                          1       6    3dy2              0.050000       0.000000
                                                         0.071899       0.003955
                                                         0.280430       0.130438
                                                         1.054693       0.434431
                                                         3.275178      -0.104752
                          1       6    3dyz              0.050000       0.000000
                                                         0.071899       0.006850
                                                         0.280430       0.225925
                                                         1.054693       0.752456
                                                         3.275178      -0.181435
                          1       6    3dz2              0.050000       0.000000
                                                         0.071899       0.003955
                                                         0.280430       0.130438
                                                         1.054693       0.434431
                                                         3.275178      -0.104752

                          1       7    4dx2              0.050000      -0.000945
                                                         0.071899      -0.014750
                                                         0.280430       0.000073
                                                         1.054693       0.016233
                                                         3.275178       0.011531
                          1       7    4dxy              0.050000      -0.001637
                                                         0.071899      -0.025547
                                                         0.280430       0.000126
                                                         1.054693       0.028116
                                                         3.275178       0.019972
                          1       7    4dxz              0.050000      -0.001637
                                                         0.071899      -0.025547
                                                         0.280430       0.000126
                                                         1.054693       0.028116
                                                         3.275178       0.019972
                          1       7    4dy2              0.050000      -0.000945
                                                         0.071899      -0.014750
                                                         0.280430       0.000073
                                                         1.054693       0.016233
                                                         3.275178       0.011531
                          1       7    4dyz              0.050000      -0.001637
                                                         0.071899      -0.025547
                                                         0.280430       0.000126
                                                         1.054693       0.028116
                                                         3.275178       0.019972
                          1       7    4dz2              0.050000      -0.000945
                                                         0.071899      -0.014750
                                                         0.280430       0.000073
                                                         1.054693       0.016233
                                                         3.275178       0.011531

                          1       8    4fx3              0.050000       0.001298
                                                         0.071899       0.001020
                                                         0.280430       0.002904
                                                         1.054693      -0.043729
                                                         3.275178       0.058338
                          1       8    4fx2y             0.050000       0.002902
                                                         0.071899       0.002281
                                                         0.280430       0.006493
                                                         1.054693      -0.097781
                                                         3.275178       0.130447
                          1       8    4fx2z             0.050000       0.002902
                                                         0.071899       0.002281
                                                         0.280430       0.006493
                                                         1.054693      -0.097781
                                                         3.275178       0.130447
                          1       8    4fxy2             0.050000       0.002902
                                                         0.071899       0.002281
                                                         0.280430       0.006493
                                                         1.054693      -0.097781
                                                         3.275178       0.130447
                          1       8    4fxyz             0.050000       0.005027
                                                         0.071899       0.003951
                                                         0.280430       0.011246
                                                         1.054693      -0.169362
                                                         3.275178       0.225940
                          1       8    4fxz2             0.050000       0.002902
                                                         0.071899       0.002281
                                                         0.280430       0.006493
                                                         1.054693      -0.097781
                                                         3.275178       0.130447
                          1       8    4fy3              0.050000       0.001298
                                                         0.071899       0.001020
                                                         0.280430       0.002904
                                                         1.054693      -0.043729
                                                         3.275178       0.058338
                          1       8    4fy2z             0.050000       0.002902
                                                         0.071899       0.002281
                                                         0.280430       0.006493
                                                         1.054693      -0.097781
                                                         3.275178       0.130447
                          1       8    4fyz2             0.050000       0.002902
                                                         0.071899       0.002281
                                                         0.280430       0.006493
                                                         1.054693      -0.097781
                                                         3.275178       0.130447
                          1       8    4fz3              0.050000       0.001298
                                                         0.071899       0.001020
                                                         0.280430       0.002904
                                                         1.054693      -0.043729
                                                         3.275178       0.058338

                          2       1    1s                3.027549      -0.882021
                                                         1.086592      -0.381532
                                                         0.227406      -0.013757
                                                         0.093278       0.000688

                          2       2    2s                3.027549      -0.408883
                                                         1.086592       0.129479
                                                         0.227406       0.199996
                                                         0.093278       0.015852

                          2       3    3s                3.027549       0.707193
                                                         1.086592      -0.352781
                                                         0.227406       0.014583
                                                         0.093278       0.122888

                          3       1    1s         

     AE Potential information for                                            ALL

       Description:                                       All-electron potential
                                          Krack, Parrinello, PCCP 2, 2105 (2000)

       Gaussian exponent of the core charge distribution:               2.469136
       Electronic configuration (s p d ...):                           6   7   0

  2. Atomic kind: F                                     Number of atoms:       1

     Orbital Basis Set                                        aug-DZVP-MOLOPT-ae

       Number of orbital shell sets:                                           2
       Number of orbital shells:                                              10
       Number of primitive Cartesian functions:                               12
       Number of Cartesian basis functions:                                   35
       Number of spherical basis functions:                                   30
       Norm type:                                                              2

       Normalised Cartesian orbitals:

                        Set   Shell   Orbital            Exponent    Coefficient

                          1       1    2s                0.110000      -0.237897
                                                         0.221407       0.197278
                                                         0.856285       0.252830
                                                         3.472802       0.000000
                                                        20.861065       0.000000

                          1       2    3px               0.110000       0.000000
                                                         0.221407      -0.026524
                                                         0.856285      -0.734779
                                                         3.472802      -2.702296
                                                        20.861065      -5.316254
                          1       2    3py               0.110000       0.000000
                                                         0.221407      -0.026524
                                                         0.856285      -0.734779
                                                         3.472802      -2.702296
                                                        20.861065      -5.316254
                          1       2    3pz               0.110000       0.000000
                                                         0.221407      -0.026524
                                                         0.856285      -0.734779
                                                         3.472802      -2.702296
                                                        20.861065      -5.316254

                          1       3    4px               0.110000       0.000000
                                                         0.221407       0.239225
                                                         0.856285      -0.239059
                                                         3.472802      -0.066644
                                                        20.861065      -3.058634
                          1       3    4py               0.110000       0.000000
                                                         0.221407       0.239225
                                                         0.856285      -0.239059
                                                         3.472802      -0.066644
                                                        20.861065      -3.058634
                          1       3    4pz               0.110000       0.000000
                                                         0.221407       0.239225
                                                         0.856285      -0.239059
                                                         3.472802      -0.066644
                                                        20.861065      -3.058634

                          1       4    5px               0.110000       0.078818
                                                         0.221407      -0.266199
                                                         0.856285       1.547016
                                                         3.472802       0.000000
                                                        20.861065       0.000000
                          1       4    5py               0.110000       0.078818
                                                         0.221407      -0.266199
                                                         0.856285       1.547016
                                                         3.472802       0.000000
                                                        20.861065       0.000000
                          1       4    5pz               0.110000       0.078818
                                                         0.221407      -0.266199
                                                         0.856285       1.547016
                                                         3.472802       0.000000
                                                        20.861065       0.000000

                          1       5    4dx2              0.110000       0.000000
                                                         0.221407       0.039048
                                                         0.856285       0.934541
                                                         3.472802       1.702429
                                                        20.861065       5.185937
                          1       5    4dxy              0.110000       0.000000
                                                         0.221407       0.067632
                                                         0.856285       1.618673
                                                         3.472802       2.948693
                                                        20.861065       8.982306
                          1       5    4dxz              0.110000       0.000000
                                                         0.221407       0.067632
                                                         0.856285       1.618673
                                                         3.472802       2.948693
                                                        20.861065       8.982306
                          1       5    4dy2              0.110000       0.000000
                                                         0.221407       0.039048
                                                         0.856285       0.934541
                                                         3.472802       1.702429
                                                        20.861065       5.185937
                          1       5    4dyz              0.110000       0.000000
                                                         0.221407       0.067632
                                                         0.856285       1.618673
                                                         3.472802       2.948693
                                                        20.861065       8.982306
                          1       5    4dz2              0.110000       0.000000
                                                         0.221407       0.039048
                                                         0.856285       0.934541
                                                         3.472802       1.702429
                                                        20.861065       5.185937

                          1       6    5dx2              0.110000       0.017757
                                                         0.221407      -0.156684
                                                         0.856285      -0.079666
                                                         3.472802       0.000000
                                                        20.861065       0.000000
                          1       6    5dxy              0.110000       0.030757
                                                         0.221407      -0.271385
                                                         0.856285      -0.137986
                                                         3.472802       0.000000
                                                        20.861065       0.000000
                          1       6    5dxz              0.110000       0.030757
                                                         0.221407      -0.271385
                                                         0.856285      -0.137986
                                                         3.472802       0.000000
                                                        20.861065       0.000000
                          1       6    5dy2              0.110000       0.017757
                                                         0.221407      -0.156684
                                                         0.856285      -0.079666
                                                         3.472802       0.000000
                                                        20.861065       0.000000
                          1       6    5dyz              0.110000       0.030757
                                                         0.221407      -0.271385
                                                         0.856285      -0.137986
                                                         3.472802       0.000000
                                                        20.861065       0.000000
                          1       6    5dz2              0.110000       0.017757
                                                         0.221407      -0.156684
                                                         0.856285      -0.079666
                                                         3.472802       0.000000
                                                        20.861065       0.000000

                          1       7    5fx3              0.110000      -0.004284
                                                         0.221407       0.041469
                                                         0.856285       0.609647
                                                         3.472802       0.000000
                                                        20.861065       0.000000
                          1       7    5fx2y             0.110000      -0.009580
                                                         0.221407       0.092729
                                                         0.856285       1.363211
                                                         3.472802       0.000000
                                                        20.861065       0.000000
                          1       7    5fx2z             0.110000      -0.009580
                                                         0.221407       0.092729
                                                         0.856285       1.363211
                                                         3.472802       0.000000
                                                        20.861065       0.000000
                          1       7    5fxy2             0.110000      -0.009580
                                                         0.221407       0.092729
                                                         0.856285       1.363211
                                                         3.472802       0.000000
                                                        20.861065       0.000000
                          1       7    5fxyz             0.110000      -0.016593
                                                         0.221407       0.160611
                                                         0.856285       2.361151
                                                         3.472802       0.000000
                                                        20.861065       0.000000
                          1       7    5fxz2             0.110000      -0.009580
                                                         0.221407       0.092729
                                                         0.856285       1.363211
                                                         3.472802       0.000000
                                                        20.861065       0.000000
                          1       7    5fy3              0.110000      -0.004284
                                                         0.221407       0.041469
                                                         0.856285       0.609647
                                                         3.472802       0.000000
                                                        20.861065       0.000000
                          1       7    5fy2z             0.110000      -0.009580
                                                         0.221407       0.092729
                                                         0.856285       1.363211
                                                         3.472802       0.000000
                                                        20.861065       0.000000
                          1       7    5fyz2             0.110000      -0.009580
                                                         0.221407       0.092729
                                                         0.856285       1.363211
                                                         3.472802       0.000000
                                                        20.861065       0.000000
                          1       7    5fz3              0.110000      -0.004284
                                                         0.221407       0.041469
                                                         0.856285       0.609647
                                                         3.472802       0.000000
                                                        20.861065       0.000000

                          2       1    1s             2894.857604      -3.769245
                                                       435.720063      -2.636442
                                                        98.526357      -4.319870
                                                        25.521650      -4.228063
                                                         7.740335      -1.399856
                                                         1.290275       0.072688
                                                         0.396917       0.019743

                          2       2    2s             2894.857604      -3.432540
                                                       435.720063       0.213630
                                                        98.526357       1.667139
                                                        25.521650       0.530933
                                                         7.740335       0.179709
                                                         1.290275       0.499593
                                                         0.396917       0.147663

                          2       3    3s             2894.857604      83.752734
                                                       435.720063     -10.330104
                                                        98.526357      -1.488736
                                                        25.521650       0.183363
                                                         7.740335      -0.025706
                                                         1.290275      -0.932260
                                                         0.396917       0.545073

     RI Auxiliary Basis Set             RI_aug-DZVP-MOLOPT-ae_N_RI_057_s_p_d_f_g

       Number of orbital shell sets:                                          17
       Number of orbital shells:                                              17
       Number of primitive Cartesian functions:                               17
       Number of Cartesian basis functions:                                   72
       Number of spherical basis functions:                                   57
       Norm type:                                                              2

       Normalised Cartesian orbitals:

                        Set   Shell   Orbital            Exponent    Coefficient

                          1       1    8px               0.490476       0.585076
                          1       1    8py               0.490476       0.585076
                          1       1    8pz               0.490476       0.585076

                          2       1    1s                0.490999       0.418043

                          3       1   15fx3              0.700517       0.660917
                          3       1   15fx2y             0.700517       1.477856
[...]
 tddfpt                               1  4.0    0.000    0.000  155.808  155.808
 tddfpt_energies                      1  5.0    0.000    0.001  155.747  155.747
 fft3d_ps                          8861 12.3   47.253   65.834  148.406  154.789
 tddfpt_davidson_solver               1  6.0    0.001    0.002  154.420  154.420
 tddfpt_compute_Aop_evects            6  7.0    0.000    0.000  152.774  152.775
 fhxc_kernel                          6  8.0    0.005    0.006  136.459  136.459
 ps_wavelet_solve                   580  9.4   65.922   89.914  121.261  123.706
 integrate_four_center              700  9.3   16.677   32.331  119.976  120.486
 qs_rho_update_rho_low              582  5.8    0.006    0.007  110.070  110.078
 calculate_rho_elec                 582  6.8    1.421    2.020  107.579  107.585
 hfx_ks_matrix                      460  8.0    0.017    0.019  106.678  107.119
 mp_sync                           4015 11.3   77.952   93.446   77.952   93.446
 mp_alltoall_z22v                  8861 14.3   90.357   93.412   90.357   93.412
 init_scf_loop                        1  4.0    0.000    0.000   81.748   81.748
 mp_alltoall_d54                    580 10.4   27.157   80.177   27.157   80.177
 prepare_gapw_den                   581  8.2    0.010    0.012   74.633   74.916
 density_rs2pw                      582  7.8    0.033    0.038   68.351   69.951
 integrate_four_center_main         700 10.3    0.345   40.539    0.558   69.287
 xc_pw_derive                      2565 11.0    0.026    0.035   67.950   68.770
 qs_vxc_create                      460  8.0    0.005    0.006   62.536   62.538
 tddfpt_apply_coulomb               120  9.0    0.002    0.003   60.163   60.437
 x_to_yz                           3727 13.7    5.245    7.304   54.114   55.162
 transfer_rs2pw                    2910  9.1    0.084    0.120   48.261   48.960
 yz_to_x                           3422 13.2    3.308    3.651   44.500   46.554
 xc_rho_set_and_dset_create         461 10.0    0.597    0.737   38.142   44.643
 calculate_rho_atom                1162  9.2    5.261   40.919    5.261   40.919
 grid_collocate_task_list           582  7.8   35.432   37.780   35.432   37.780
 mp_sum_dv                        23243 11.5   35.987   36.277   35.987   36.277
 mp_sum_d                         11784 10.2   32.142   34.332   32.142   34.332
 mp_alltoall_d45                    581 10.4   27.511   33.547   27.511   33.547
 transfer_pw2rs                    1677 10.4    0.024    0.030   32.246   33.188
 mp_waitany                      156962 11.6   29.680   32.893   29.680   32.893
 xc_vxc_pw_create                   154  9.0    0.484    0.677   32.141   32.141
 put_rho0_on_grid                   581  9.2    1.444    2.096   31.504   31.785
 xc_pw_divergence                   274 10.4    0.010    0.012   30.780   31.513
 integrate_v_rspace                 274  9.0    0.006    0.007   30.274   30.513
 xc_exc_calc                        306  9.0    0.745    1.060   30.390   30.391
 integrate_four_center_bin        54681 11.3    0.213   28.748    0.213   28.748
 potential_pw2rs                    274 10.0    0.061    0.078   27.538   27.834
 transfer_rs2pw_250                1164 10.5   10.172   10.887   25.940   26.733
 mp_alltoall_d11v                 16398 11.9   17.076   24.706   17.076   24.706
 tddfpt_apply_xc_analytic           120  9.0    0.090    0.104   23.157   23.549
 gaVxcgb_GC                         548  9.4    0.121   23.198    0.121   23.198
 integrate_vhg0_rspace              580  8.4    0.793    1.193   22.359   22.886
 transfer_pw2rs_250                 855 10.9    6.828    7.823   21.125   22.153
 calc_screening_functions             1 10.0   16.115   17.700   16.487   18.069
 sum_up_and_integrate               154  8.0    0.002    0.002   16.907   16.965
 calculate_vxc_atom                 460  8.0    0.138    2.536   16.088   16.090
 tddfpt_apply_hfx                     6  8.0    0.002    0.003   15.501   15.501
 qs_scf_new_mos                     460  5.0    0.002    0.002   14.282   14.375
 qs_scf_loop_do_ot                  460  6.0    0.002    0.003   14.280   14.373
 mp_waitall_1                   1326566 13.3   10.282   14.079   10.282   14.079
 xc_calc_2nd_deriv_analytical       600 10.0    0.649    0.712   13.807   13.834
 ot_scf_mini                        460  7.0    0.006    0.006   13.452   13.543
 tddft_hfx_matrix                   240  9.0    0.006    0.008   13.325   13.400
 transfer_rs2pw_30                  582  9.8    5.099    5.305   11.915   12.092
 dbcsr_multiply_generic            6540  9.8    0.268    0.292   11.627   11.847
 calculate_xc_2nd_deriv_atom        120  9.0    0.020    1.280    0.086   11.716
 mp_sendrecv_dv                  222324 10.8    8.911    9.125    8.911    9.125
 cp2k_distribution_to_z_slices      580  9.4    3.361    3.984    8.361    9.058
 mp_isend_dm3                     18962 11.6    1.371    8.185    1.371    8.185
 xc_functional_eval                2781 11.0    0.004    0.010    2.107    7.886
 pbe_lda_eval                      2781 12.0    2.103    7.876    2.103    7.876
 mp_sum_dm                         3514  8.4    6.704    7.745    6.704    7.745
 pw_scatter_p                      4275 12.7    7.235    7.574    7.235    7.574
 transfer_rs2pw_90                  582  9.8    1.869    2.033    6.914    7.563
 Vh_1c_gg_integrals                 580  8.4    0.086    6.236    6.850    6.992
 qs_ot_get_p                        461  8.0    0.003    0.003    6.773    6.783
 rs_grid_zero                      2291 11.0    6.214    6.620    6.214    6.620
 multiply_cannon                   6540 10.8    0.660    0.681    5.791    6.137
 pw_derive                         4305 11.4    5.590    5.991    5.590    5.991
 transfer_pw2rs_30                  274 12.0    2.492    2.701    5.472    5.626
 pw_gather_p                       4586 11.9    5.185    5.620    5.185    5.620
 mp_isendrecv_dv                 372068 11.8    2.142    5.499    2.142    5.499
 qs_ot_p2m_diag                     460  9.0    0.010    0.016    5.388    5.417
 fft_wrap_pw1pw2_90                 856 10.5    0.154    0.308    4.607    5.254
 cp_dbcsr_sm_fm_multiply            769  8.5    0.016    0.018    4.797    4.865
 pw_copy                           6935 10.6    4.562    4.807    4.562    4.807
 multiply_cannon_loop              6540 11.8    1.010    1.124    4.397    4.744
 dbcsr_complete_redistribute       3360 10.9    0.129    0.193    4.485    4.554
 transfer_pw2rs_90                  274 12.0    0.927    1.032    3.818    4.334
 pw_poisson_set                     581  9.4    0.016    0.019    4.063    4.145
 ot_mini                            460  8.0    0.002    0.002    4.087    4.110
 integrate_four_center_getP         700 10.3    0.209    0.239    3.782    3.853
 qs_ot_get_derivative               154  9.0    0.001    0.001    3.736    3.744
 cp_dbcsr_syevd                     460 10.0    0.026    0.027    3.726    3.743
 mp_sum_l                         30357 10.7    3.024    3.619    3.024    3.619
 integrate_four_center_dist_KS      700 10.3    0.210    0.243    3.518    3.524
 copy_dbcsr_to_fm                  1280  9.9    0.017    0.018    3.479    3.505
 transfer_rs2pw_10                  582  9.8    1.314    1.385    3.408    3.497
 make_m2s                         13080 10.8    0.223    0.244    3.234    3.334
 pw_copy_to_array                  4586 11.9    2.179    3.321    2.179    3.321
 qs_ot_get_derivative_diag          153 10.0    0.003    0.004    2.881    2.886
 rs_gather_matrices                 274 10.0    0.003    0.034    2.637    2.873
 mp_isend_dv                     428770 13.1    1.722    2.846    1.722    2.846
 pw_integral_ab_c1d_c1d_gs          580  9.4    2.122    2.151    2.693    2.841
 mp_irecv_dm3                     18962 11.6    1.164    2.777    1.164    2.777
 copy_fm_to_dbcsr                  2078  9.9    0.009    0.010    2.661    2.728
 make_images                      13080 11.8    0.617    0.632    2.475    2.520
 calculate_rho_atom_coeff           582  6.8    0.147    0.318    2.484    2.488
 mp_alltoall_i11v                 11820 12.0    2.373    2.376    2.373    2.376
 grid_integrate_task_list           274 10.0    0.092    2.322    0.092    2.322
 calculate_rho0_atom               1162  9.2    2.159    2.258    2.159    2.258
 cp_fm_syevd                        508 10.7    0.003    0.004    2.217    2.224
 integrate_four_center_load         700 10.3    0.002    0.002    1.601    2.066
 hfx_load_balance                     1 11.0    0.000    0.000    1.599    2.065
 transfer_pw2rs_10                  274 12.0    0.642    0.759    1.806    2.055
 hfx_load_balance_range               1 12.0    0.000    0.000    1.579    2.045
 mp_max_i                          1047  6.5    1.672    1.959    1.672    1.959
 pw_axpy                           4398  9.5    1.741    1.913    1.741    1.913
 pw_copy_from_array                4275 12.7    1.511    1.795    1.511    1.795
 cp_fm_redistribute_end             508 11.7    0.987    1.666    1.004    1.685
 fft_wrap_pw1pw2_30                 856 10.5    0.027    0.031    1.558    1.642
 qs_ot_get_orbitals                 460  8.0    0.002    0.002    1.622    1.628
 multiply_cannon_metrocomm3      156960 12.8    0.472    0.495    1.198    1.603
 dbcsr_desymmetrize_deep           1281 10.9    0.032    0.035    1.566    1.584
 mp_alltoall_z11v                  1712 13.5    1.440    1.531    1.440    1.531
 pw_zero                           4020 10.4    1.406    1.521    1.406    1.521
 cp_fm_syevd_base                   508 11.7    0.672    1.351    0.672    1.351
 cp_dbcsr_sm_fm_multiply_core       769  9.5    0.002    0.002    1.176    1.233
 update_ks_atom                     580  8.2    0.096    0.251    0.946    1.215
 make_images_sizes                13080 12.8    0.014    0.015    1.114    1.151
 mp_bcast_dm                       2783  9.7    0.868    1.144    0.868    1.144
 mp_alltoall_i44                  13080 13.8    1.100    1.137    1.100    1.137
 offload_free_buffer                588  9.3    0.525    1.097    0.525    1.097
 tddfpt_orthonormalize_psi1_psi       7  6.9    0.011    0.012    1.010    1.010
 scale_and_distribute              1160 10.4    0.790    0.969    0.790    0.969
 multiply_cannon_metrocomm4      150420 12.8    0.456    0.489    0.881    0.968
 xz_to_yz                          1164 11.8    0.071    0.095    0.924    0.942
 hybrid_alltoall_any              14361 13.6    0.127    0.143    0.900    0.925
 multiply_cannon_metrocomm2      137340 12.8    0.413    0.453    0.759    0.845
 calculate_dm_sparse                461  7.0    0.001    0.002    0.829    0.837
 tddfpt_apply_energy_diff             6  8.0    0.001    0.001    0.814    0.814
 fft_wrap_pw1pw2_10                 856 10.5    0.009    0.010    0.783    0.795
 powell_optimize                 293816 11.0    0.725    0.758    0.725    0.758
 calc_pair_dist_radii                 1 10.0    0.336    0.366    0.688    0.747
 tddfpt_print_nto_analysis            1  6.0    0.002    0.003    0.715    0.715
 yz_to_xz                           548 14.0    0.052    0.060    0.639    0.711
 cp_dbcsr_plus_fm_fm_t              121  9.0    0.002    0.002    0.694    0.701
 pw_poisson_rebuild                 580  9.4    0.000    0.001    0.640    0.658
 ps_wavelet_create                    1 10.0    0.000    0.000    0.639    0.658
 RS_z_slice_distribution              1 11.0    0.520    0.615    0.639    0.658
 mp_rank_compare                   8861 13.3    0.601    0.622    0.601    0.622
 tddfpt_compute_residual_vects        5  7.0    0.001    0.001    0.610    0.611
 mp_alltoall_i22                   4794 12.0    0.507    0.603    0.507    0.603
 dbcsr_make_images_dense          10304 11.9    0.150    0.169    0.398    0.570
 arnoldi_extremal                   461  9.0    0.008    0.009    0.539    0.553
 cp_fm_redistribute_start           508 11.7    0.430    0.442    0.538    0.550
 arnoldi_normal_ev                  462 10.0    0.008    0.009    0.532    0.546
 vxc_of_r_new                      1840  9.0    0.000    0.041    0.003    0.498
 dbcsr_create_new                114873 12.4    0.331    0.349    0.445    0.467
 make_images_data                 13080 12.8    0.145    0.187    0.307    0.446
 mp_allgather_i34                  6540 11.8    0.403    0.440    0.403    0.440
 parallel_gemm_fm                  1020  8.3    0.001    0.001    0.414    0.423
 parallel_gemm_fm_gemm             1020  9.3    0.001    0.002    0.413    0.422
 cp_fm_gemm                        1020 10.3    0.411    0.421    0.411    0.421
 dbcsr_make_dense_low             25057 12.8    0.126    0.131    0.190    0.420
 dbcsr_finalize                   13409 11.3    0.066    0.088    0.300    0.407
 mp_irecv_dv                     428068 13.1    0.302    0.379    0.302    0.379
 multiply_cannon_metrocomm1      156960 12.8    0.172    0.180    0.323    0.375
 build_subspace                     462 11.0    0.017    0.020    0.359    0.362
 rs_scatter_matrices                582  7.8    0.004    0.014    0.337    0.344
 tddfpt_construct_ground_state_       1  6.0    0.000    0.000    0.319    0.320
 ot_new_cg_direction                154  9.0    0.001    0.002    0.318    0.318
 prepare_dr1dr                      600 11.0    0.197    0.310    0.197    0.310
 cp_fm_geeig                         20  7.0    0.001    0.001    0.308    0.309
 dbcsr_matrix_vector_mult          3569 12.0    0.033    0.035    0.176    0.303
 multiply_cannon_multrec         156960 12.8    0.199    0.270    0.226    0.297
 init_scf_run                         1  3.0    0.000    0.000    0.286    0.286
 scf_env_initial_rho_setup            1  4.0    0.000    0.000    0.286    0.286
 apply_preconditioner_dbcsr         155 10.0    0.000    0.000    0.266    0.276
 apply_single                       155 11.0    0.000    0.000    0.266    0.276
 mp_cart_sub                       2564 11.9    0.272    0.275    0.272    0.275
 mp_isend_iv                     316926 13.8    0.244    0.270    0.244    0.270
 cube_transpose_2                  1164 11.8    0.023    0.026    0.232    0.255
 dbcsr_new_transposed              3157 10.8    0.018    0.019    0.247    0.250
 dbcsr_iterator_start             99696 12.6    0.096    0.197    0.116    0.237
 dbcsr_special_finalize           26160 12.8    0.059    0.061    0.197    0.236
 make_dense_data                  25057 13.8    0.010    0.100    0.011    0.231
 dbcsr_merge_all                  11934 12.2    0.135    0.175    0.165    0.227
 rs_grid_create                     586  9.4    0.003    0.005    0.020    0.225
 create_qs_kind_set                   1  2.0    0.000    0.000    0.201    0.223
 read_qs_kind                         2  3.0    0.099    0.144    0.201    0.223
 offload_create_buffer              588 10.4    0.017    0.222    0.017    0.222
 mp_cart_create                    2445 10.6    0.197    0.213    0.201    0.217
 xc_2nd_deriv_of_r                  480 10.0    0.000    0.036    0.001    0.217
 dbcsr_destroy                   111328 11.5    0.144    0.160    0.189    0.207
 dbcsr_redistribute                 153 12.0    0.006    0.006    0.194    0.197
 pw_scale                           856  9.5    0.149    0.195    0.149    0.195
 cp_fm_trace_a1b1t1_aa             7470  8.0    0.036    0.038    0.187    0.189
 mp_sum_b                         10305 10.9    0.183    0.186    0.183    0.186
 qs_init_subsys                       1  2.0    0.005    0.005    0.171    0.171
 dbcsr_make_dense                  4449 11.1    0.019    0.020    0.098    0.169
 dbcsr_data_release              547723 13.2    0.138    0.169    0.138    0.169
 dbcsr_data_new                  319987 13.0    0.129    0.166    0.129    0.166
 qs_energies_init_hamiltonians        1  3.0    0.000    0.000    0.165    0.165
 build_core_hamiltonian_matrix        1  4.0    0.000    0.000    0.156    0.156
 overlap_condnum                      1  5.0    0.000    0.000    0.153    0.154
 mp_irecv_iv                     313916 13.8    0.136    0.154    0.136    0.154
 qs_env_setup                         1  3.0    0.000    0.000    0.150    0.152
 qs_env_rebuild_pw_env                2  3.5    0.000    0.000    0.149    0.152
 dbcsr_iterator_stop              99696 12.6    0.070    0.128    0.087    0.151
 pw_env_rebuild                       1  5.0    0.001    0.001    0.149    0.151
 mp_cart_rank                    445856  9.9    0.119    0.143    0.119    0.143
 create_kernel_env                    1  6.0    0.000    0.000    0.116    0.137
 xc_prep_2nd_deriv                    1  7.0    0.000    0.000    0.116    0.137
 dbcsr_make_undense                4449 11.1    0.029    0.062    0.055    0.136
 pw_grid_setup                        4  6.0    0.000    0.000    0.132    0.134
 pw_grid_setup_internal               4  7.0    0.003    0.005    0.132    0.134
 setup_buffer_matrices            13080 11.8    0.040    0.042    0.120    0.128
 parser_read_line                 19814  4.0    0.007    0.010    0.102    0.127
 dbcsr_work_create                39528 12.4    0.074    0.081    0.103    0.125
 dbcsr_dot                         1537  8.7    0.009    0.015    0.114    0.124
 arnoldi_init                       462 11.0    0.005    0.006    0.111    0.123
 parser_read_line_low                26  5.0    0.012    0.039    0.095    0.120
 dbcsr_col_vec_to_rep_row          3940 12.6    0.028    0.030    0.056    0.116
 Gram_Schmidt_ortho                3175 12.0    0.003    0.007    0.090    0.115
 dbcsr_add_d                       1727  9.6    0.003    0.004    0.011    0.113
 cube_transpose_1                   548 14.0    0.010    0.011    0.098    0.111
 dbcsr_add_anytype                 1727 10.6    0.003    0.018    0.008    0.111
 broadcast_input_information         26  6.0    0.024    0.028    0.084    0.109
 write_mo_set_to_restart            460  5.0    0.007    0.032    0.103    0.109
 dbcsr_work_destroy_all           39528 13.3    0.067    0.075    0.089    0.106
 quick_finalize                   21321 13.9    0.047    0.060    0.077    0.104
 dbcsr_mm_multrec_init             6540 11.8    0.012    0.015    0.088    0.098
 dbcsr_mm_csr_init                 6540 12.8    0.060    0.067    0.075    0.084
 mp_sum_iv                         2296 10.7    0.062    0.084    0.062    0.084
 dbcsr_make_untransposed_blocks    8369 10.7    0.046    0.050    0.075    0.079
 pw_grid_sort                         4  8.0    0.048    0.049    0.075    0.077
 mp_bcast_dv                       4448 13.5    0.022    0.077    0.022    0.077
 dbcsr_switch_data_area           58013 13.8    0.054    0.056    0.073    0.077
 dbcsr_copy                        9514  9.9    0.032    0.035    0.071    0.077
 tddfpt_compute_ritz_vects            6  7.0    0.003    0.004    0.076    0.077
 tddfpt_orthogonalize_psi1_psi0       7  6.9    0.000    0.000    0.071    0.076
 copy_fm_to_dbcsr_bc               2078 10.9    0.023    0.025    0.064    0.074
 dbcsr_make_dists_dense            5152 10.9    0.054    0.058    0.069    0.073
 mp_comm_split                      508 12.7    0.068    0.071    0.069    0.072
 dbcsr_make_index_exist          114873 13.4    0.063    0.070    0.063    0.070
 -------------------------------------------------------------------------------

 The number of warnings for this run is : 2
 
 -------------------------------------------------------------------------------
  **** **** ******  **  PROGRAM ENDED AT                 2025-04-20 15:34:03.936
 ***** ** ***  *** **   PROGRAM RAN ON                              i05r08c04s01
 **    ****   ******    PROGRAM RAN BY                                   di38fab
 ***** **    ** ** **   PROGRAM PROCESS ID                               3621757
  **** **  *******  **  PROGRAM STOPPED IN /hppfs/scratch/04/di38fab/05_MOL/W4-1
                                           1+ALK/alf/DZVP/TDDFT/1e-4
