SIRIUS 7.5.2, git hash: https://api.github.com/repos/electronic-structure/SIRIUS/git/ref/tags/v7.5.2
 DBCSR| CPU Multiplication driver                                           XSMM (U)
 DBCSR| Multrec recursion limit                                              512 (U)
 DBCSR| Multiplication stack size                                           1000 (D)
 DBCSR| Maximum elements for images                                    UNLIMITED (U)
 DBCSR| Multiplicative factor virtual images                                   1 (U)
 DBCSR| Use multiplication densification                                       T (D)
 DBCSR| Multiplication size stacks                                             3 (U)
 DBCSR| Use memory pool for CPU allocation                                     F (U)
 DBCSR| Number of 3D layers                                               SINGLE (U)
 DBCSR| Use MPI memory allocation                                              F (U)
 DBCSR| Use RMA algorithm                                                      F (U)
 DBCSR| Use Communication thread                                               T (U)
 DBCSR| Communication thread load                                             75 (D)
 DBCSR| MPI: My process id                                                     0
 DBCSR| MPI: Number of processes                                             192
 DBCSR| OMP: Current number of threads                                         4
 DBCSR| OMP: Max number of threads                                             4
 DBCSR| Split modifier for TAS multiplication algorithm                  1.0E+00 (U)


  **** **** ******  **  PROGRAM STARTED AT               2025-03-14 04:39:23.952
 ***** ** ***  *** **   PROGRAM STARTED ON                              n2cn0412
 **    ****   ******    PROGRAM STARTED BY                              metdyn02
 ***** **    ** ** **   PROGRAM PROCESS ID                               3521577
  **** **  *******  **  PROGRAM STARTED IN /scratch/hpc-prf-metdyn/metdyn02_Remi
                                           /10_MOL/05_MOL/aUKBqsEOTmq69kFe5R_nOg
                                           /5k_set_final_qzvp/XTBCOC/TZVP/GW+BSE
                                           /RILIM

 CP2K| version string:                 CP2K version 2025.1 (Development Version)
 CP2K| source code revision number:                                  git:f0c7327
 CP2K| cp2kflags: omp libint fftw3 libxc libgrpp elpa parallel scalapack mpi_f08
 CP2K|             cosma xsmm plumed2 spglib sirius libvori libbqb libvdwxc hdf5
 CP2K| is freely available from                            https://www.cp2k.org/
 CP2K| Program compiled at                          Wed Mar 12 18:25:30 CET 2025
 CP2K| Program compiled on                                              n2login1
 CP2K| Program compiled for                                                local
 CP2K| Data directory path    /opt/software/pc2/EB-SW/software/CP2K/2024.1-foss-
 CP2K| Input file name                                                    GW.inp

 GLOBAL| Force Environment number                                              1
 GLOBAL| Basis set file name            /scratch/hpc-prf-metdyn/metdyn02_Remi/BA
 GLOBAL| Potential file name            /pc2/groups/hpc-prf-metdyn/metdyn02_Remi
 GLOBAL| MM Potential file name                                     MM_POTENTIAL
 GLOBAL| Coordinate file name                                      __STD_INPUT__
 GLOBAL| Method name                                                        CP2K
 GLOBAL| Project name                                                       MoS2
 GLOBAL| Run type                                                         ENERGY
 GLOBAL| FFT library                                                       FFTW3
 GLOBAL| Diagonalization library                                            ELPA
 GLOBAL| DGEMM library                                                      BLAS
 GLOBAL| Minimum number of eigenvectors for ELPA usage                        16
 GLOBAL| Orthonormality check for eigenvectors                          DISABLED
 GLOBAL| Matrix multiplication library                                     COSMA
 GLOBAL| All-to-all communication in single precision                          F
 GLOBAL| FFTs using library dependent lengths                                  F
 GLOBAL| Grid backend                                                       AUTO
 GLOBAL| Global print level                                               MEDIUM
 GLOBAL| MPI I/O enabled                                                       T
 GLOBAL| Total number of message passing processes                           192
 GLOBAL| Number of threads for this process                                    4
 GLOBAL| This output is from process                                           0
 GLOBAL| OpenMP stack size per thread (OMP_STACKSIZE)                    default
 GLOBAL| CPU model name                          AMD EPYC 7763 64-Core Processor
 GLOBAL| CPUID                                                              1002

 MEMORY| system memory details [Kb]
 MEMORY|                        rank 0           min           max       average
 MEMORY| MemTotal            263899260     263899260     263899264     263899261
 MEMORY| MemFree             241341768     241341768     246858192     243328655
 MEMORY| Buffers                243572         83152        243572        162094
 MEMORY| Cached                8300632       5148860       8300632       7115440
 MEMORY| Slab                  2498936       1610256       2574268       2218092
 MEMORY| SReclaimable           471872        310440        533564        417826
 MEMORY| MemLikelyFree       250357844     250357844     252453360     251024016


 *** Fundamental physical constants (SI units) ***

 *** Literature: B. J. Mohr and B. N. Taylor,
 ***             CODATA recommended values of the fundamental physical
 ***             constants: 2006, Web Version 5.1
 ***             http://physics.nist.gov/constants

 Speed of light in vacuum [m/s]                             2.99792458000000E+08
 Magnetic constant or permeability of vacuum [N/A**2]       1.25663706143592E-06
 Electric constant or permittivity of vacuum [F/m]          8.85418781762039E-12
 Planck constant (h) [J*s]                                  6.62606896000000E-34
 Planck constant (h-bar) [J*s]                              1.05457162825177E-34
 Elementary charge [C]                                      1.60217648700000E-19
 Electron mass [kg]                                         9.10938215000000E-31
 Electron g factor [ ]                                     -2.00231930436220E+00
 Proton mass [kg]                                           1.67262163700000E-27
 Fine-structure constant                                    7.29735253760000E-03
 Rydberg constant [1/m]                                     1.09737315685270E+07
 Avogadro constant [1/mol]                                  6.02214179000000E+23
 Boltzmann constant [J/K]                                   1.38065040000000E-23
 Atomic mass unit [kg]                                      1.66053878200000E-27
 Bohr radius [m]                                            5.29177208590000E-11

 *** Conversion factors ***

 [u] -> [a.u.]                                              1.82288848426455E+03
 [Angstrom] -> [Bohr] = [a.u.]                              1.88972613288564E+00
 [a.u.] = [Bohr] -> [Angstrom]                              5.29177208590000E-01
 [a.u.] -> [s]                                              2.41888432650478E-17
 [a.u.] -> [fs]                                             2.41888432650478E-02
 [a.u.] -> [J]                                              4.35974393937059E-18
 [a.u.] -> [N]                                              8.23872205491840E-08
 [a.u.] -> [K]                                              3.15774647902944E+05
 [a.u.] -> [kJ/mol]                                         2.62549961709828E+03
 [a.u.] -> [kcal/mol]                                       6.27509468713739E+02
 [a.u.] -> [Pa]                                             2.94210107994716E+13
 [a.u.] -> [bar]                                            2.94210107994716E+08
 [a.u.] -> [atm]                                            2.90362800883016E+08
 [a.u.] -> [eV]                                             2.72113838565563E+01
 [a.u.] -> [Hz]                                             6.57968392072181E+15
 [a.u.] -> [1/cm] (wave numbers)                            2.19474631370540E+05
 [a.u./Bohr**2] -> [1/cm]                                   5.14048714338585E+03
 

 CELL_TOP| Volume [angstrom^3]:                                     27000.000000
 CELL_TOP| Vector a [angstrom    30.000     0.000     0.000   |a| =    30.000000
 CELL_TOP| Vector b [angstrom     0.000    30.000     0.000   |b| =    30.000000
 CELL_TOP| Vector c [angstrom     0.000     0.000    30.000   |c| =    30.000000
 CELL_TOP| Angle (b,c), alpha [degree]:                                90.000000
 CELL_TOP| Angle (a,c), beta  [degree]:                                90.000000
 CELL_TOP| Angle (a,b), gamma [degree]:                                90.000000
 CELL_TOP| Numerically orthorhombic:                                         YES
 CELL_TOP| Periodicity                                                      NONE

 GENERATE|  Preliminary Number of Bonds generated:                             0
 GENERATE|  Achieved consistency in connectivity generation.

 CELL| Volume [angstrom^3]:                                         27000.000000
 CELL| Vector a [angstrom]:      30.000     0.000     0.000   |a| =    30.000000
 CELL| Vector b [angstrom]:       0.000    30.000     0.000   |b| =    30.000000
 CELL| Vector c [angstrom]:       0.000     0.000    30.000   |c| =    30.000000
 CELL| Angle (b,c), alpha [degree]:                                    90.000000
 CELL| Angle (a,c), beta  [degree]:                                    90.000000
 CELL| Angle (a,b), gamma [degree]:                                    90.000000
 CELL| Numerically orthorhombic:                                             YES
 CELL| Periodicity                                                          NONE

 CELL_REF| Volume [angstrom^3]:                                     27000.000000
 CELL_REF| Vector a [angstrom    30.000     0.000     0.000   |a| =    30.000000
 CELL_REF| Vector b [angstrom     0.000    30.000     0.000   |b| =    30.000000
 CELL_REF| Vector c [angstrom     0.000     0.000    30.000   |c| =    30.000000
 CELL_REF| Angle (b,c), alpha [degree]:                                90.000000
 CELL_REF| Angle (a,c), beta  [degree]:                                90.000000
 CELL_REF| Angle (a,b), gamma [degree]:                                90.000000
 CELL_REF| Numerically orthorhombic:                                         YES
 CELL_REF| Periodicity                                                      NONE

 *******************************************************************************
 *******************************************************************************
 **                                                                           **
 **     #####                         ##              ##                      **
 **    ##   ##            ##          ##              ##                      **
 **   ##     ##                       ##            ######                    **
 **   ##     ##  ##   ##  ##   #####  ##  ##   ####   ##    #####    #####    **
 **   ##     ##  ##   ##  ##  ##      ## ##   ##      ##   ##   ##  ##   ##   **
 **   ##  ## ##  ##   ##  ##  ##      ####     ###    ##   ######   ######    **
 **    ##  ###   ##   ##  ##  ##      ## ##      ##   ##   ##       ##        **
 **     #######   #####   ##   #####  ##  ##  ####    ##    #####   ##        **
 **           ##                                                    ##        **
 **                                                                           **
 **                                                ... make the atoms dance   **
 **                                                                           **
 **            Copyright (C) by CP2K developers group (2000-2025)             **
 **                      J. Chem. Phys. 152, 194103 (2020)                    **
 **                                                                           **
 *******************************************************************************

 DFT| Spin restricted Kohn-Sham (RKS) calculation                            RKS
 DFT| Multiplicity                                                             1
 DFT| Number of spin states                                                    1
 DFT| Charge                                                                   0
 DFT| Self-interaction correction (SIC)                                       NO
 DFT| Cutoffs: density                                              1.000000E-10
 DFT|          gradient                                             1.000000E-10
 DFT|          tau                                                  1.000000E-10
 DFT|          cutoff_smoothing_range                               0.000000E+00
 DFT| XC density smoothing                                                  NONE
 DFT| XC derivatives                                                          PW

 FUNCTIONAL| PBE:
 FUNCTIONAL| J.P.Perdew, K.Burke, M.Ernzerhof, Phys. Rev. Letter, vol. 77, n 18,
 FUNCTIONAL|  pp. 3865-3868, (1996)sx=0.750sc=1.000{spin unpolarized}           


 QS| Method:                                                                GAPW
 QS| Density plane wave grid type                        NON-SPHERICAL FULLSPACE
 QS| Number of grid levels:                                                    4
 QS| Density cutoff [a.u.]:                                                250.0
 QS| Multi grid cutoff [a.u.]: 1) grid level                               250.0
 QS|                           2) grid level                                83.3
 QS|                           3) grid level                                27.8
 QS|                           4) grid level                                 9.3
 QS| Grid level progression factor:                                          3.0
 QS| Relative density cutoff [a.u.]:                                        50.0
 QS| Interaction thresholds: eps_pgf_orb:                                1.0E-12
 QS|                         eps_filter_matrix:                          0.0E+00
 QS|                         eps_core_charge:                            1.0E-14
 QS|                         eps_rho_gspace:                             1.0E-12
 QS|                         eps_rho_rspace:                             1.0E-12
 QS|                         eps_gvg_rspace:                             1.0E-06
 QS|                         eps_ppl:                                    1.0E-02
 QS|                         eps_ppnl:                                   1.0E-08
 QS| GAPW|      One center basis from orbital basis primitives
 QS| GAPW|                   eps_fit:                                    1.0E-04
 QS| GAPW|                   eps_iso:                                    1.0E-12
 QS| GAPW|                   eps_svd:                                    1.0E-08
 QS| GAPW|                   eps_cpc:                                    1.0E-12
 QS| GAPW|   atom-r-grid: quadrature:                                     GC_LOG
 QS| GAPW|      atom-s-grid:  max l :                                          8
 QS| GAPW|      max_l_rho0 :                                                   2


 ATOMIC KIND INFORMATION

  1. Atomic kind: O                                     Number of atoms:       2

     Orbital Basis Set                                        aug-TZVP-MOLOPT-ae

       Number of orbital shell sets:                                           2
       Number of orbital shells:                                              16
       Number of primitive Cartesian functions:                               13
       Number of Cartesian basis functions:                                   71
       Number of spherical basis functions:                                   56
       Norm type:                                                              2

       Normalised Cartesian orbitals:

                        Set   Shell   Orbital            Exponent    Coefficient

                          1       1    1s                0.050000       0.000000
                                                         0.148931       0.008771
                                                         0.454433       0.026241
                                                         1.335408       0.005818
                                                         4.395399       0.718493
                                                        12.309450       2.903007
                                                        62.914956       1.320675

                          1       2    2s                0.050000       0.000000
                                                         0.148931       0.036066
                                                         0.454433       0.073646
                                                         1.335408       0.667362
                                                         4.395399      -0.111917
                                                        12.309450      -0.053902
                                                        62.914956      -0.747743

                          1       3    3s                0.050000       0.000000
                                                         0.148931       0.072341
                                                         0.454433       0.339134
                                                         1.335408      -0.296204
                                                         4.395399      -0.066370
                                                        12.309450      -0.509964
                                                        62.914956       0.182030

                          1       4    4s                0.050000       0.000000
                                                         0.148931       0.257390
                                                         0.454433      -0.327789
                                                         1.335408      -0.186757
                                                         4.395399      -0.014958
                                                        12.309450      -0.201401
                                                        62.914956       1.590188

                          1       5    5s                0.050000       0.095896
                                                         0.148931      -0.062439
                                                         0.454433       0.011784
                                                         1.335408      -0.100924
                                                         4.395399       0.000000
                                                        12.309450       0.000000
                                                        62.914956       0.000000

                          1       6    2px               0.050000       0.000000
                                                         0.148931       0.002211
                                                         0.454433      -0.015509
                                                         1.335408       1.487193
                                                         4.395399       2.867225
                                                        12.309450       3.872733
                                                        62.914956     -23.794765
                          1       6    2py               0.050000       0.000000
                                                         0.148931       0.002211
                                                         0.454433      -0.015509
                                                         1.335408       1.487193
                                                         4.395399       2.867225
                                                        12.309450       3.872733
                                                        62.914956     -23.794765
                          1       6    2pz               0.050000       0.000000
                                                         0.148931       0.002211
                                                         0.454433      -0.015509
                                                         1.335408       1.487193
                                                         4.395399       2.867225
                                                        12.309450       3.872733
                                                        62.914956     -23.794765

                          1       7    3px               0.050000       0.000000
                                                         0.148931       0.008518
                                                         0.454433       0.481961
                                                         1.335408       0.085170
                                                         4.395399       0.441215
                                                        12.309450      -1.837950
                                                        62.914956      36.698597
                          1       7    3py               0.050000       0.000000
                                                         0.148931       0.008518
                                                         0.454433       0.481961
                                                         1.335408       0.085170
                                                         4.395399       0.441215
                                                        12.309450      -1.837950
                                                        62.914956      36.698597
                          1       7    3pz               0.050000       0.000000
                                                         0.148931       0.008518
                                                         0.454433       0.481961
                                                         1.335408       0.085170
                                                         4.395399       0.441215
                                                        12.309450      -1.837950
                                                        62.914956      36.698597

                          1       8    4px               0.050000       0.000000
                                                         0.148931       0.138320
                                                         0.454433      -0.034294
                                                         1.335408      -0.042535
                                                         4.395399      -0.295522
                                                        12.309450       0.600610
                                                        62.914956     -10.152534
                          1       8    4py               0.050000       0.000000
                                                         0.148931       0.138320
                                                         0.454433      -0.034294
                                                         1.335408      -0.042535
                                                         4.395399      -0.295522
                                                        12.309450       0.600610
                                                        62.914956     -10.152534
                          1       8    4pz               0.050000       0.000000
                                                         0.148931       0.138320
                                                         0.454433      -0.034294
                                                         1.335408      -0.042535
                                                         4.395399      -0.295522
                                                        12.309450       0.600610
                                                        62.914956     -10.152534

                          1       9    5px               0.050000      -0.000964
                                                         0.148931       0.027417
                                                         0.454433       0.328542
                                                         1.335408       0.651611
                                                         4.395399       0.000000
                                                        12.309450       0.000000
                                                        62.914956       0.000000
                          1       9    5py               0.050000      -0.000964
                                                         0.148931       0.027417
                                                         0.454433       0.328542
                                                         1.335408       0.651611
                                                         4.395399       0.000000
                                                        12.309450       0.000000
                                                        62.914956       0.000000
                          1       9    5pz               0.050000      -0.000964
                                                         0.148931       0.027417
                                                         0.454433       0.328542
                                                         1.335408       0.651611
                                                         4.395399       0.000000
                                                        12.309450       0.000000
                                                        62.914956       0.000000

                          1      10    3dx2              0.050000       0.000000
                                                         0.148931       0.011799
                                                         0.454433       0.037044
                                                         1.335408       1.177796
                                                         4.395399      13.187048
                                                        12.309450      -3.718320
                                                        62.914956     245.407483
                          1      10    3dxy              0.050000       0.000000
                                                         0.148931       0.020436
                                                         0.454433       0.064161
                                                         1.335408       2.040003
                                                         4.395399      22.840637
                                                        12.309450      -6.440319
                                                        62.914956     425.058229
                          1      10    3dxz              0.050000       0.000000
                                                         0.148931       0.020436
                                                         0.454433       0.064161
                                                         1.335408       2.040003
                                                         4.395399      22.840637
                                                        12.309450      -6.440319
                                                        62.914956     425.058229
                          1      10    3dy2              0.050000       0.000000
                                                         0.148931       0.011799
                                                         0.454433       0.037044
                                                         1.335408       1.177796
                                                         4.395399      13.187048
                                                        12.309450      -3.718320
                                                        62.914956     245.407483
                          1      10    3dyz              0.050000       0.000000
                                                         0.148931       0.020436
                                                         0.454433       0.064161
                                                         1.335408       2.040003
                                                         4.395399      22.840637
                                                        12.309450      -6.440319
                                                        62.914956     425.058229
                          1      10    3dz2              0.050000       0.000000
                                                         0.148931       0.011799
                                                         0.454433       0.037044
                                                         1.335408       1.177796
                                                         4.395399      13.187048
                                                        12.309450      -3.718320
                                                        62.914956     245.407483

                          1      11    4dx2              0.050000       0.000000
                                                         0.148931      -0.006399
                                                         0.454433       0.341143
                                                         1.335408       1.062793
                                                         4.395399      -7.656182
                                                        12.309450       6.262545
                                                        62.914956    -198.939864
                          1      11    4dxy              0.050000       0.000000
                                                         0.148931      -0.011084
                                                         0.454433       0.590877
                                                         1.335408       1.840811
                                                         4.395399     -13.260897
                                                        12.309450      10.847045
                                                        62.914956    -344.573952
                          1      11    4dxz              0.050000       0.000000
                                                         0.148931      -0.011084
                                                         0.454433       0.590877
                                                         1.335408       1.840811
                                                         4.395399     -13.260897
                                                        12.309450      10.847045
                                                        62.914956    -344.573952
                          1      11    4dy2              0.050000       0.000000
                                                         0.148931      -0.006399
                                                         0.454433       0.341143
                                                         1.335408       1.062793
                                                         4.395399      -7.656182
                                                        12.309450       6.262545
                                                        62.914956    -198.939864
                          1      11    4dyz              0.050000       0.000000
                                                         0.148931      -0.011084
                                                         0.454433       0.590877
                                                         1.335408       1.840811
                                                         4.395399     -13.260897
                                                        12.309450      10.847045
                                                        62.914956    -344.573952
                          1      11    4dz2              0.050000       0.000000
                                                         0.148931      -0.006399
                                                         0.454433       0.341143
                                                         1.335408       1.062793
                                                         4.395399      -7.656182
                                                        12.309450       6.262545
                                                        62.914956    -198.939864

                          1      12    5dx2              0.050000      -0.000167
                                                         0.148931       0.000910
                                                         0.454433       0.391605
                                                         1.335408       0.205296
                                                         4.395399       0.000000
                                                        12.309450       0.000000
                                                        62.914956       0.000000
                          1      12    5dxy              0.050000      -0.000290
                                                         0.148931       0.001577
                                                         0.454433       0.678279
                                                         1.335408       0.355584
                                                         4.395399       0.000000
                                                        12.309450       0.000000
                                                        62.914956       0.000000
                          1      12    5dxz              0.050000      -0.000290
                                                         0.148931       0.001577
                                                         0.454433       0.678279
                                                         1.335408       0.355584
                                                         4.395399       0.000000
                                                        12.309450       0.000000
                                                        62.914956       0.000000
                          1      12    5dy2              0.050000      -0.000167
                                                         0.148931       0.000910
                                                         0.454433       0.391605
                                                         1.335408       0.205296
                                                         4.395399       0.000000
                                                        12.309450       0.000000
                                                        62.914956       0.000000
                          1      12    5dyz              0.050000      -0.000290
                                                         0.148931       0.001577
                                                         0.454433       0.678279
                                                         1.335408       0.355584
                                                         4.395399       0.000000
                                                        12.309450       0.000000
                                                        62.914956       0.000000
                          1      12    5dz2              0.050000      -0.000167
                                                         0.148931       0.000910
                                                         0.454433       0.391605
                                                         1.335408       0.205296
                                                         4.395399       0.000000
                                                        12.309450       0.000000
                                                        62.914956       0.000000

                          1      13    4fx3              0.050000       0.000000
                                                         0.148931       0.001654
                                                         0.454433       0.066745
                                                         1.335408       2.406605
                                                         4.395399      -5.031344
                                                        12.309450      16.622131
                                                        62.914956       4.775823
                          1      13    4fx2y             0.050000       0.000000
                                                         0.148931       0.003699
                                                         0.454433       0.149247
                                                         1.335408       5.381333
                                                         4.395399     -11.250428
                                                        12.309450      37.168214
                                                        62.914956      10.679064
                          1      13    4fx2z             0.050000       0.000000
                                                         0.148931       0.003699
                                                         0.454433       0.149247
                                                         1.335408       5.381333
                                                         4.395399     -11.250428
                                                        12.309450      37.168214
                                                        62.914956      10.679064
                          1      13    4fxy2             0.050000       0.000000
                                                         0.148931       0.003699
                                                         0.454433       0.149247
                                                         1.335408       5.381333
                                                         4.395399     -11.250428
                                                        12.309450      37.168214
                                                        62.914956      10.679064
                          1      13    4fxyz             0.050000       0.000000
                                                         0.148931       0.006406
                                                         0.454433       0.258503
                                                         1.335408       9.320743
                                                         4.395399     -19.486313
                                                        12.309450      64.377235
                                                        62.914956      18.496681
                          1      13    4fxz2             0.050000       0.000000
                                                         0.148931       0.003699
                                                         0.454433       0.149247
                                                         1.335408       5.381333
                                                         4.395399     -11.250428
                                                        12.309450      37.168214
                                                        62.914956      10.679064
                          1      13    4fy3              0.050000       0.000000
                                                         0.148931       0.001654
                                                         0.454433       0.066745
                                                         1.335408       2.406605
                                                         4.395399      -5.031344
                                                        12.309450      16.622131
                                                        62.914956       4.775823
                          1      13    4fy2z             0.050000       0.000000
                                                         0.148931       0.003699
                                                         0.454433       0.149247
                                                         1.335408       5.381333
                                                         4.395399     -11.250428
                                                        12.309450      37.168214
                                                        62.914956      10.679064
                          1      13    4fyz2             0.050000       0.000000
                                                         0.148931       0.003699
                                                         0.454433       0.149247
                                                         1.335408       5.381333
                                                         4.395399     -11.250428
                                                        12.309450      37.168214
                                                        62.914956      10.679064
                          1      13    4fz3              0.050000       0.000000
                                                         0.148931       0.001654
                                                         0.454433       0.066745
                                                         1.335408       2.406605
                                                         4.395399      -5.031344
                                                        12.309450      16.622131
                                                        62.914956       4.775823

                          1      14    5fx3              0.050000      -0.000035
                                                         0.148931       0.000216
                                                         0.454433       0.256015
                                                         1.335408      -0.160820
                                                         4.395399       0.000000
                                                        12.309450       0.000000
                                                        62.914956       0.000000
                          1      14    5fx2y             0.050000      -0.000077
                                                         0.148931       0.000483
                                                         0.454433       0.572467
                                                         1.335408      -0.359605
                                                         4.395399       0.000000
                                                        12.309450       0.000000
                                                        62.914956       0.000000
                          1      14    5fx2z             0.050000      -0.000077
                                                         0.148931       0.000483
                                                         0.454433       0.572467
                                                         1.335408      -0.359605
                                                         4.395399       0.000000
                                                        12.309450       0.000000
                                                        62.914956       0.000000
                          1      14    5fxy2             0.050000      -0.000077
                                                         0.148931       0.000483
                                                         0.454433       0.572467
                                                         1.335408      -0.359605
                                                         4.395399       0.000000
                                                        12.309450       0.000000
                                                        62.914956       0.000000
                          1      14    5fxyz             0.050000      -0.000134
                                                         0.148931       0.000837
                                                         0.454433       0.991542
                                                         1.335408      -0.622854
                                                         4.395399       0.000000
                                                        12.309450       0.000000
                                                        62.914956       0.000000
                          1      14    5fxz2             0.050000      -0.000077
                                                         0.148931       0.000483
                                                         0.454433       0.572467
                                                         1.335408      -0.359605
                                                         4.395399       0.000000
                                                        12.309450       0.000000
                                                        62.914956       0.000000
                          1      14    5fy3              0.050000      -0.000035
                                                         0.148931       0.000216
                                                         0.454433       0.256015
                                                         1.335408      -0.160820
                                                         4.395399       0.000000
                                                        12.309450       0.000000
                                                        62.914956       0.000000
                          1      14    5fy2z             0.050000      -0.000077
                                                         0.148931       0.000483
                                                         0.454433       0.572467
                                                         1.335408      -0.359605
                                                         4.395399       0.000000
                                                        12.309450       0.000000
                                                        62.914956       0.000000
                          1      14    5fyz2             0.050000      -0.000077
                                                         0.148931       0.000483
                                                         0.454433       0.572467
                                                         1.335408      -0.359605
                                                         4.395399       0.000000
                                                        12.309450       0.000000
                                                        62.914956       0.000000
                          1      14    5fz3              0.050000      -0.000035
                                                         0.148931       0.000216
                                                         0.454433       0.256015
                                                         1.335408      -0.160820
                                                         4.395399       0.000000
                                                        12.309450       0.000000
                                                        62.914956       0.000000

                          1      15    5gx4              0.050000       0.000008
                                                         0.148931       0.000769
                                                         0.454433       0.118509
                                                         1.335408       0.001274
                                                         4.395399       0.000000
                                                        12.309450       0.000000
                                                        62.914956       0.000000
                          1      15    5gx3y             0.050000       0.000022
                                                         0.148931       0.002034
                                                         0.454433       0.313545
                                                         1.335408       0.003370
                                                         4.395399       0.000000
                                                        12.309450       0.000000
                                                        62.914956       0.000000
                          1      15    5gx3z             0.050000       0.000022
                                                         0.148931       0.002034
                                                         0.454433       0.313545
                                                         1.335408       0.003370
                                                         4.395399       0.000000
                                                        12.309450       0.000000
                                                        62.914956       0.000000
                          1      15    5gx2y2            0.050000       0.000029
                                                         0.148931       0.002626
                                                         0.454433       0.404785
                                                         1.335408       0.004351
                                                         4.395399       0.000000
                                                        12.309450       0.000000
                                                        62.914956       0.000000
                          1      15    5gx2yz            0.050000       0.000050
                                                         0.148931       0.004548
                                                         0.454433       0.701109
                                                         1.335408       0.007536
                                                         4.395399       0.000000
                                                        12.309450       0.000000
                                                        62.914956       0.000000
                          1      15    5gx2z2            0.050000       0.000029
                                                         0.148931       0.002626
                                                         0.454433       0.404785
                                                         1.335408       0.004351
                                                         4.395399       0.000000
                                                        12.309450       0.000000
                                                        62.914956       0.000000
                          1      15    5gxy3             0.050000       0.000022
                                                         0.148931       0.002034
                                                         0.454433       0.313545
                                                         1.335408       0.003370
                                                         4.395399       0.000000
                                                        12.309450       0.000000
                                                        62.914956       0.000000
                          1      15    5gxy2z            0.050000       0.000050
                                                         0.148931       0.004548
                                                         0.454433       0.701109
                                                         1.335408       0.007536
                                                         4.395399       0.000000
                                                        12.309450       0.000000
                                                        62.914956       0.000000
                          1      15    5gxyz2            0.050000       0.000050
                                                         0.148931       0.004548
                                                         0.454433       0.701109
                                                         1.335408       0.007536
                                                         4.395399       0.000000
                                                        12.309450       0.000000
                                                        62.914956       0.000000
                          1      15    5gxz3             0.050000       0.000022
                                                         0.148931       0.002034
                                                         0.454433       0.313545
                                                         1.335408       0.003370
                                                         4.395399       0.000000
                                                        12.309450       0.000000
                                                        62.914956       0.000000
                          1      15    5gy4              0.050000       0.000008
                                                         0.148931       0.000769
                                                         0.454433       0.118509
                                                         1.335408       0.001274
                                                         4.395399       0.000000
                                                        12.309450       0.000000
                                                        62.914956       0.000000
                          1      15    5gy3z             0.050000       0.000022
                                                         0.148931       0.002034
                                                         0.454433       0.313545
                                                         1.335408       0.003370
                                                         4.395399       0.000000
                                                        12.309450       0.000000
                                                        62.914956       0.000000
                          1      15    5gy2z2            0.050000       0.000029
                                                         0.148931       0.002626
                                                         0.454433       0.404785
                                                         1.335408       0.004351
                                                         4.395399       0.000000
                                                        12.309450       0.000000
                                                        62.914956       0.000000
                          1      15    5gyz3             0.050000       0.000022
                                                         0.148931       0.002034
                                                         0.454433       0.313545
                                                         1.335408       0.003370
                                                         4.395399       0.000000
                                                        12.309450       0.000000
                                                        62.914956       0.000000
                          1      15    5gz4              0.050000       0.000008
                                                         0.148931       0.000769
                                                         0.454433       0.118509
                                                         1.335408       0.001274
                                                         4.395399       0.000000
                                                        12.309450       0.000000
                                                        62.914956       0.000000

                          2       1    1s            27032.341107       0.827485
                                                      4052.439160       2.350354
                                                       922.349653       2.989583
                                                       261.277359       5.859993
                                                        85.309424       4.920023
                                                        31.080802       6.525964

     RI Auxiliary Basis Set             RI_aug-TZVP-MOLOPT-ae_N_RI_119_s_p_d_f_g

       Number of orbital shell sets:                                          27
       Number of orbital shells:                                              27
       Number of primitive Cartesian functions:                               27
       Number of Cartesian basis functions:                                  162
       Number of spherical basis functions:                                  119
       Norm type:                                                              2

       Normalised Cartesian orbitals:

                        Set   Shell   Orbital            Exponent    Coefficient

                          1       1   14dx2              0.303628       0.204413
                          1       1   14dxy              0.303628       0.354054
                          1       1   14dxz              0.303628       0.354054
                          1       1   14dy2              0.303628       0.204413
                          1       1   14dyz              0.303628       0.354054
                          1       1   14dz2              0.303628       0.204413

                          2       1    1s                0.313134       0.298337

                          3       1    8px               0.481155       0.571211
                          3       1    8py               0.481155       0.571211
                          3       1    8pz               0.481155       0.571211

                          4       1   15dx2              0.569752       0.614978
                          4       1   15dxy              0.569752       1.065173
                          4       1   15dxz              0.569752       1.065173
                          4       1   15dy2              0.569752       0.614978
                          4       1   15dyz              0.569752       1.065173
                          4       1   15dz2              0.569752       0.614978

                          5       1   20fx3              0.618494       0.499412
                          5       1   20fx2y             0.618494       1.116720
                          5       1   20fx2z             0.618494       1.116720
                          5       1   20fxy2             0.618494       1.116720
                          5       1   20fxyz             0.618494       1.934216
                          5       1   20fxz2             0.618494       1.116720
                          5       1   20fy3              0.618494       0.499412
                          5       1   20fy2z             0.618494       1.116720
                          5       1   20fyz2             0.618494       1.116720
                          5       1   20fz3              0.618494       0.499412

                          6       1   25gx4              0.693241       0.406319
                          6       1   25gx3y             0.693241       1.075020
                          6       1   25gx3z             0.693241       1.075020
                          6       1   25gx2y2            0.693241       1.387844
                          6       1   25gx2yz            0.693241       2.403817
                          6       1   25gx2z2            0.693241       1.387844
                          6       1   25gxy3             0.693241       1.075020
                          6       1   25gxy2z            0.693241       2.403817
                          6       1   25gxyz2            0.693241       2.403817
                          6       1   25gxz3             0.693241       1.075020
                          6       1   25gy4              0.693241       0.406319
                          6       1   25gy3z             0.693241       1.075020
                          6       1   25gy2z2            0.693241       1.387844
                          6       1   25gyz3             0.693241       1.075020
                          6       1   25gz4              0.693241       0.406319

                          7       1    2s                0.796361       0.600818

                          8       1    9px               0.914696       1.275076
                          8       1    9py               0.914696       1.275076
                          8       1    9pz               0.914696       1.275076

                          9       1   27hx5              0.922662       0.571128
                          9       1   27hx4y             0.922662       1.713383
                          9       1   27hx4z             0.922662       1.713383
                          9       1   27hx3y2            0.922662       2.617235
                          9       1   27hx3yz            0.922662       4.533184
                          9       1   27hx3z2            0.922662       2.617235
                          9       1   27hx2y3            0.922662       2.617235
                          9       1   27hx2y2z           0.922662       5.852316
                          9       1   27hx2yz2           0.922662       5.852316
                          9       1   27hx2z3            0.922662       2.617235
                          9       1   27hxy4             0.922662       1.713383
                          9       1   27hxy3z            0.922662       4.533184
                          9       1   27hxy2z2           0.922662       5.852316
                          9       1   27hxyz3            0.922662       4.533184
                          9       1   27hxz4             0.922662       1.713383
                          9       1   27hy5              0.922662       0.571128
                          9       1   27hy4z             0.922662       1.713383
                          9       1   27hy3z2            0.922662       2.617235
                          9       1   27hy2z3            0.922662       2.617235
                          9       1   27hyz4             0.922662       1.713383
                          9       1   27hz5              0.922662       0.571128

                         10       1   21fx3              1.022133       1.546487
                         10       1   21fx2y             1.022133       3.458050
                         10       1   21fx2z             1.022133       3.458050
                         10       1   21fxy2             1.022133       3.458050
                         10       1   21fxyz             1.022133       5.989519
                         10       1   21fxz2             1.022133       3.458050
                         10       1   21fy3              1.022133       1.546487
                         10       1   21fy2z             1.022133       3.458050
                         10       1   21fyz2             1.022133       3.458050
                         10       1   21fz3              1.022133       1.546487

                         11       1   16dx2              1.083996       1.895432
                         11       1   16dxy              1.083996       3.282985
                         11       1   16dxz              1.083996       3.282985
                         11       1   16dy2              1.083996       1.895432
                         11       1   16dyz              1.083996       3.282985
                         11       1   16dz2              1.083996       1.895432

                         12       1    3s                1.262532       0.848871

                         13       1   22fx3              1.716659       4.965850
                         13       1   22fx2y             1.716659      11.103979
                         13       1   22fx2z             1.716659      11.103979
                         13       1   22fxy2             1.716659      11.103979
                         13       1   22fxyz             1.716659      19.232655
                         13       1   22fxz2             1.716659      11.103979
                         13       1   22fy3              1.716659       4.965850
                         13       1   22fy2z             1.716659      11.103979
                         13       1   22fyz2             1.716659      11.103979
                         13       1   22fz3              1.716659       4.965850

                         14       1   17dx2              2.056765       5.814104
                         14       1   17dxy              2.056765      10.070323
                         14       1   17dxz              2.056765      10.070323
                         14       1   17dy2              2.056765       5.814104
                         14       1   17dyz              2.056765      10.070323
                         14       1   17dz2              2.056765       5.814104

                         15       1   10px               2.090735       3.583552
                         15       1   10py               2.090735       3.583552
                         15       1   10pz               2.090735       3.583552

                         16       1   26gx4              2.179110       9.477706
                         16       1   26gx3y             2.179110      25.075652
                         16       1   26gx3z             2.179110      25.075652
                         16       1   26gx2y2            2.179110      32.372528
                         16       1   26gx2yz            2.179110      56.070863
                         16       1   26gx2z2            2.179110      32.372528
                         16       1   26gxy3             2.179110      25.075652
                         16       1   26gxy2z            2.179110      56.070863
                         16       1   26gxyz2            2.179110      56.070863
                         16       1   26gxz3             2.179110      25.075652
                         16       1   26gy4              2.179110       9.477706
                         16       1   26gy3z             2.179110      25.075652
                         16       1   26gy2z2            2.179110      32.372528
                         16       1   26gyz3             2.179110      25.075652
                         16       1   26gz4              2.179110       9.477706

                         17       1   23fx3              2.884307      15.960550
                         17       1   23fx2y             2.884307      35.688875
                         17       1   23fx2z             2.884307      35.688875
                         17       1   23fxy2             2.884307      35.688875
                         17       1   23fxyz             2.884307      61.814944
                         17       1   23fxz2             2.884307      35.688875
                         17       1   23fy3              2.884307      15.960550
                         17       1   23fy2z             2.884307      35.688875
                         17       1   23fyz2             2.884307      35.688875
                         17       1   23fz3              2.884307      15.960550

                         18       1    4s                3.454747       1.806019

                         19       1   18dx2              3.924565      18.011281
                         19       1   18dxy              3.924565      31.196454
                         19       1   18dxz              3.924565      31.196454
                         19       1   18dy2              3.924565      18.011281
                         19       1   18dyz              3.924565      31.196454
                         19       1   18dz2              3.924565      18.011281

                         20       1   24fx3              5.093807      57.385216
                         20       1   24fx2y             5.093807     128.317245
                         20       1   24fx2z             5.093807     128.317245
                         20       1   24fxy2             5.093807     128.317245
                         20       1   24fxyz             5.093807     222.251987
                         20       1   24fxz2             5.093807     128.317245
                         20       1   24fy3              5.093807      57.385216
                         20       1   24fy2z             5.093807     128.317245
                         20       1   24fyz2             5.093807     128.317245
                         20       1   24fz3              5.093807      57.385216

                         21       1   11px               5.255486      11.342431
                         21       1   11py               5.255486      11.342431
                         21       1   11pz               5.255486      11.342431

                         22       1   19dx2              7.665259      58.120780
                         22       1   19dxy              7.665259     100.668144
                         22       1   19dxz              7.665259     100.668144
                         22       1   19dy2              7.665259      58.120780
                         22       1   19dyz              7.665259     100.668144
                         22       1   19dz2              7.665259      58.120780

                         23       1    5s               11.971140       4.586820

                         24       1   12px              12.834518      34.626975
                         24       1   12py              12.834518      34.626975
                         24       1   12pz              12.834518      34.626975

                         25       1   13px              30.936808     104.000269
                         25       1   13py              30.936808     104.000269
                         25       1   13pz              30.936808     104.000269

                         26       1    6s               41.209988      11.592096

                         27       1    7s              127.285581      27.008129

       Atomic covalent radius [Angstrom]:                                  0.730

       Atomic van der Waals radius [Angstrom]:                             1.520

     The atoms of this atomic kind are PAW atoms (GAPW):
       Hard Gaussian function radius:                                      1.512
       Rho0 radius:                                                        1.512
       Maximum GTO radius used for PAW projector construction:            24.566

     GAPW Soft Basis Set                                 aug-TZVP-MOLOPT-ae_soft

       Number of orbital shell sets:                                           2
       Number of orbital shells:                                              16
       Number of primitive Cartesian functions:                                5
       Number of Cartesian basis functions:                                   71
       Number of spherical basis functions:                                   56
       Norm type:                                                              2

       Normalised Cartesian orbitals:

                        Set   Shell   Orbital            Exponent    Coefficient

                          1       1    1s                0.050000       0.000000
                                                         0.148931       0.008771
                                                         0.454433       0.026241
                                                         1.335408       0.005818
                                                         4.395399       0.000000

                          1       2    2s                0.050000       0.000000
                                                         0.148931       0.036066
                                                         0.454433       0.073646
                                                         1.335408       0.667362
                                                         4.395399       0.000000

                          1       3    3s                0.050000       0.000000
                                                         0.148931       0.072341
                                                         0.454433       0.339134
                                                         1.335408      -0.296204
                                                         4.395399       0.000000

                          1       4    4s                0.050000       0.000000
                                                         0.148931       0.257390
                                                         0.454433      -0.327789
                                                         1.335408      -0.186757
                                                         4.395399       0.000000

                          1       5    5s                0.050000       0.095896
                                                         0.148931      -0.062439
                                                         0.454433       0.011784
                                                         1.335408      -0.100924
                                                         4.395399       0.000000

                          1       6    2px               0.050000       0.000000
                                                         0.148931       0.002211
                                                         0.454433      -0.015509
                                                         1.335408       1.487193
                                                         4.395399       0.000000
                          1       6    2py               0.050000       0.000000
                                                         0.148931       0.002211
                                                         0.454433      -0.015509
                                                         1.335408       1.487193
                                                         4.395399       0.000000
                          1       6    2pz               0.050000       0.000000
                                                         0.148931       0.002211
                                                         0.454433      -0.015509
                                                         1.335408       1.487193
                                                         4.395399       0.000000

                          1       7    3px               0.050000       0.000000
                                                         0.148931       0.008518
                                                         0.454433       0.481961
                                                         1.335408       0.085170
                                                         4.395399       0.000000
                          1       7    3py               0.050000       0.000000
                                                         0.148931       0.008518
                                                         0.454433       0.481961
                                                         1.335408       0.085170
                                                         4.395399       0.000000
                          1       7    3pz               0.050000       0.000000
                                                         0.148931       0.008518
                                                         0.454433       0.481961
                                                         1.335408       0.085170
                                                         4.395399       0.000000

                          1       8    4px               0.050000       0.000000
                                                         0.148931       0.138320
                                                         0.454433      -0.034294
                                                         1.335408      -0.042535
                                                         4.395399       0.000000
                          1       8    4py               0.050000       0.000000
                                                         0.148931       0.138320
                                                         0.454433      -0.034294
                                                         1.335408      -0.042535
                                                         4.395399       0.000000
                          1       8    4pz               0.050000       0.000000
                                                         0.148931       0.138320
                                                         0.454433      -0.034294
                                                         1.335408      -0.042535
                                                         4.395399       0.000000

                          1       9    5px               0.050000      -0.000964
                                                         0.148931       0.027417
                                                         0.454433       0.328542
                                                         1.335408       0.651611
                                                         4.395399       0.000000
                          1       9    5py               0.050000      -0.000964
                                                         0.148931       0.027417
                                                         0.454433       0.328542
                                                         1.335408       0.651611
                                                         4.395399       0.000000
                          1       9    5pz               0.050000      -0.000964
                                                         0.148931       0.027417
                                                         0.454433       0.328542
                                                         1.335408       0.651611
                                                         4.395399       0.000000

                          1      10    3dx2              0.050000       0.000000
                                                         0.148931       0.011799
                                                         0.454433       0.037044
                                                         1.335408       1.177796
                                                         4.395399       0.000000
                          1      10    3dxy              0.050000       0.000000
                                                         0.148931       0.020436
                                                         0.454433       0.064161
                                                         1.335408       2.040003
                                                         4.395399       0.000000
                          1      10    3dxz              0.050000       0.000000
                                                         0.148931       0.020436
                                                         0.454433       0.064161
                                                         1.335408       2.040003
                                                         4.395399       0.000000
                          1      10    3dy2              0.050000       0.000000
                                                         0.148931       0.011799
[...]
 Second-Order Moller-Plesset Perturbation Theory in the Condensed Phase: An 
 Efficient and Massively Parallel Gaussian and Plane Waves Approach.
 https://doi.org/10.1021/ct300531w

 M. Guidon, J. Hutter, J. VandeVondele.
 J. Chem. Theory Comput. 5, 3010-3021 (2009).
 Robust Periodic Hartree-Fock Exchange for Large-Scale Simulations Using 
 Gaussian Basis Sets.
 https://doi.org/10.1021/ct900494g

 M. Guidon, F. Schiffmann, J. Hutter, J. VandeVondele.
 J. Chem. Phys. 128, 214104 (2008).
 Ab initio molecular dynamics using hybrid density functionals.
 https://doi.org/10.1063/1.2931945

 L. Genovese, T. Deutsch, S. Goedecker.
 J. Chem. Phys. 127, 054704 (2007).
 Efficient and accurate three-dimensional Poisson solver for surface problems.
 https://doi.org/10.1063/1.2754685

 J. VandeVondele, J. Hutter.
 J. Chem. Phys. 127, 114105 (2007).
 Gaussian basis sets for accurate calculations on molecular systems in gas and 
 condensed phases.
 https://doi.org/10.1063/1.2770708

 L. Genovese, T. Deutsch, A. Neelov, S. Goedecker, G. Beylkin.
 J. Chem. Phys. 125, 074105 (2006).
 Efficient solution of Poisson's equation with free boundary conditions.
 https://doi.org/10.1063/1.2335442

 M. Frigo, S. G. Johnson.
 Proc. IEEE 93, 216-231 (2005).
 The design and implementation of FFTW3.
 https://doi.org/10.1109/JPROC.2004.840301

 M. Krack, M. Parrinello.
 Phys. Chem. Chem. Phys. 2, 2105-2112 (2000).
 All-electron ab-initio molecular dynamics.
 https://doi.org/10.1039/b001167n

 G. Lippert, J. Hutter, M. Parrinello.
 Theor. Chem. Acc. 103, 124-140 (1999).
 The Gaussian and augmented-plane-wave density functional method for ab initio 
 molecular dynamics simulations.
 https://doi.org/10.1007/s002140050523

 J. P. Perdew, K. Burke, M. Ernzerhof.
 Phys. Rev. Lett. 77, 3865-3868 (1996).
 Generalized gradient approximation made simple.
 https://doi.org/10.1103/PhysRevLett.77.3865


 -------------------------------------------------------------------------------
 -                                                                             -
 -                                T I M I N G                                  -
 -                                                                             -
 -------------------------------------------------------------------------------
 SUBROUTINE                       CALLS  ASD         SELF TIME        TOTAL TIME
                                MAXIMUM       AVERAGE  MAXIMUM  AVERAGE  MAXIMUM
 CP2K                                 1  1.0    0.015    0.034 1501.689 1501.695
 qs_energies                          1  2.0    0.000    0.000 1501.141 1501.276
 scf_env_do_scf                       1  3.0    0.000    0.000 1337.085 1337.091
 scf_env_do_scf_inner_loop           66  4.0    0.001    0.004 1337.085 1337.091
 qs_ks_build_kohn_sham_matrix        67  7.0    0.009    0.011 1306.394 1306.584
 qs_ks_update_qs_env                 66  5.0    0.000    0.001 1304.820 1305.006
 rebuild_ks_matrix                   66  6.0    0.000    0.000 1304.812 1304.999
 hfx_ks_matrix                       67  8.0    0.001    0.002 1216.939 1216.971
 integrate_four_center               67  9.0   10.647   12.782 1216.934 1216.959
 integrate_four_center_main          67 10.0    3.237   17.489  975.557 1144.871
 integrate_four_center_bin        12154 11.0  972.320 1144.758  972.320 1144.758
 mp_sync                            767  9.4  172.192  631.650  172.192  631.650
 mp2_main                             1  3.0    0.000    0.000  162.037  162.172
 mp2_gpw_main                         1  4.0    0.000    0.001  160.254  160.271
 rpa_ri_compute_en                    1  5.0    0.000    0.001  140.028  140.031
 rpa_num_int                          1  6.0    0.001    0.001  139.448  139.509
 compute_GW_self_energy             100  7.0    0.001    0.007   71.918   73.671
 compute_GW_self_energy_deep        100  8.0   34.708   34.849   71.353   73.104
 start_bse_calculation                1  7.0    0.000    0.002   62.650   62.653
 parallel_gemm_fm                   352  8.5    0.001    0.001   57.231   58.941
 parallel_gemm_fm_cosma             352  9.5   57.230   58.941   57.230   58.941
 calc_screening_functions             1 10.0   56.906   57.775   57.727   58.593
 cp_fm_diag_elpa                     72  7.0    0.000    0.000   40.611   40.782
 fft_wrap_pw1pw2                   1398  9.9    0.027    0.033   37.014   40.671
 cp_fm_diag_elpa_base                72  8.0   38.761   39.951   39.212   40.355
 fft_wrap_pw1pw2_250                996 11.1    0.769    0.958   34.955   39.817
 fft3d_ps                          1398 11.9    4.950    7.086   33.938   37.412
 create_hermitian_form_of_ABBA        1  8.0    0.000    0.001   32.002   32.152
 mp_alltoall_z22v                  1398 13.9   27.413   30.293   27.413   30.293
 diagonalize_C                        1  8.0    0.001    0.005   25.003   25.032
 qs_rho_update_rho_low               67  5.0    0.001    0.001   23.472   23.485
 cp_fm_power                          2  7.5    0.174    0.194   22.582   22.771
 mp_sum_d                         11894  6.9   15.241   21.983   15.241   21.983
 prepare_gapw_den                    67  8.0    0.001    0.002   20.290   20.781
 mp2_ri_gpw_compute_in                1  5.0    0.010    0.015   20.197   20.198
 mp2_ri_gpw_compute_in_loop           1  6.0    0.000    0.000   20.153   20.158
 calculate_rho_elec                  67  6.0    0.088    0.126   19.721   19.722
 contract_B_L                         4  7.0    0.038    0.042   16.301   19.213
 pw_poisson_solve                    67  8.0    0.214    0.306   19.066   19.088
 qs_vxc_create                       67  8.0    0.001    0.001   18.434   18.434
 xc_vxc_pw_create                    66  9.0    0.138    0.201   18.433   18.433
 x_to_yz                            597 12.9    0.604    1.085   15.509   17.498
 mp2_eri_3c_integrate                 1  7.0    0.006    0.010    3.441   14.945
 integrate_set_3c                  1725  8.0    3.154   13.893    3.435   14.937
 xc_pw_derive                       396 11.0    0.003    0.003   14.254   14.643
 mp_cart_create                     519 10.0   11.638   14.544   11.639   14.545
 dbt_pgrid_create_expert             84 10.8    0.000    0.000   11.618   14.523
 calculate_rho_atom                 268  9.0    1.440   14.344    1.440   14.344
 yz_to_x                            533 13.2    0.466    0.549   12.933   14.081
 mp_sum_dv                        31021 10.0   13.123   13.735   13.123   13.735
 density_rs2pw                       67  7.0    0.003    0.003   11.101   12.178
 sum_up_and_integrate                67  8.0    0.001    0.001   10.783   11.332
 integrate_v_rspace                  67  9.0    0.002    0.002   10.714   11.271
 calculate_vxc_atom                  67  8.0    0.038    0.298   10.733   10.733
 transfer_pw2rs                     336 10.6    0.006    0.008    9.271   10.429
 gaVxcgb_GC                         132  9.0    0.248   10.352    0.248   10.352
 ps_wavelet_solve                    67  9.0    3.921    5.859    9.355   10.127
 potential_pw2rs                     67 10.0    0.007    0.009    9.964   10.036
 mp_waitany                       22352 11.5    8.041    9.740    8.041    9.740
 xc_pw_divergence                    66 10.0    0.001    0.002    9.216    9.456
 xc_rho_set_and_dset_create          66 10.0    0.168    0.218    8.378    9.411
 grid_collocate_task_list            67  7.0    7.902    8.998    7.902    8.998
 transfer_rs2pw                     336  8.4    0.007    0.013    7.134    7.831
 transfer_pw2rs_250                 135 10.9    1.479    1.711    5.701    6.995
 mp_alltoall_d54                     67 10.0    2.718    5.900    2.718    5.900
 gspace_mixing                       65  5.0    0.085    0.121    5.883    5.892
 mp_waitall_1                     65046 12.0    4.574    5.892    4.574    5.892
 put_rho0_on_grid                    67  9.0    0.098    0.152    5.376    5.866
 integrate_vhg0_rspace               67  8.0    0.370    0.424    4.778    5.607
 mp_sum_dm                         3488  7.6    4.847    5.232    4.847    5.232
 transfer_rs2pw_250                 135 10.0    1.433    1.618    4.562    5.087
 dbt_total                            8  8.0    0.000    0.000    4.595    4.595
 dbt_contract                         4  9.0    0.000    0.000    4.397    4.440
 fft_wrap_pw1pw2_90                 134 10.5    0.027    0.042    1.633    4.108
 mp_alltoall_d45                     68 10.0    3.214    3.976    3.214    3.976
 mp_alltoall_d11v                  1312  9.5    2.655    3.902    2.655    3.902
 fm_general_add_bse                   5 10.2    0.000    0.000    3.676    3.789
 create_A                             1  8.0    0.007    0.013    3.754    3.786
 calculate_rho_atom_coeff            67  6.0    0.228    0.378    3.750    3.763
 qs_scf_new_mos                      66  5.0    0.001    0.001    3.224    3.312
 mp_isend_dv                      26364 12.0    2.399    3.291    2.399    3.291
 fm_general_add_bse_5_comm_buff       5 11.2    0.000    0.000    3.188    3.290
 communicate_buffer                   5 12.2    0.000    0.001    3.188    3.290
 dbt_copy                            12 10.1    0.000    0.000    3.103    3.170
 dbt_reshape                          8 11.6    0.067    0.074    2.961    3.027
 rpa_num_int_RPA_matrix_operati     100  7.0    0.001    0.004    2.983    2.987
 dbt_communicate_buffer               8 12.6    0.001    0.002    2.864    2.936
 eigensolver_symm                    67  6.0    0.004    0.006    2.869    2.875
 cp2k_distribution_to_z_slices       67  9.0    0.265    0.317    2.102    2.788
 broyden_mixing                      65  6.0    2.648    2.699    2.751    2.783
 calc_mat_Q                         100  8.0    0.000    0.000    2.626    2.639
 contract_S_to_Q                    100  9.0    0.001    0.001    2.613    2.626
 Vh_1c_gg_integrals                  67  8.0    0.030    0.902    1.277    2.524
 cp_fm_redistribute_end              72  8.0    1.196    2.344    1.210    2.351
 mp_sum_l                           989  6.2    0.924    2.265    0.924    2.265
 integrate_four_center_load          67 10.0    0.000    0.000    0.884    2.229
 hfx_load_balance                     1 11.0    0.000    0.000    0.884    2.229
 hfx_load_balance_range               1 12.0    0.000    0.000    0.871    2.215
 cp_fm_syrk                           3  7.0    2.185    2.191    2.185    2.191
 transfer_pw2rs_90                   67 12.0    0.316    0.395    1.689    2.037
 mp_isend_im2                      1334 13.3    1.018    1.910    1.018    1.910
 create_B                             1  8.0    0.001    0.005    1.670    1.895
 mp_max_i                           661  2.7    0.630    1.844    0.630    1.844
 transfer_pw2rs_30                   67 12.0    0.287    0.327    1.418    1.792
 powell_optimize                 907301 11.0    1.401    1.731    1.401    1.731
 dbt_remap                            8 10.0    0.001    0.001    1.644    1.645
 transfer_rs2pw_90                   67  9.0    0.329    0.415    1.358    1.644
 calc_pair_dist_radii                 1 10.0    0.933    0.961    1.513    1.639
 mp_waitall_2                        48 15.8    1.189    1.599    1.189    1.599
 compute_vec_Sigma_x_minus_vxc_       1  4.0    0.000    0.000    1.590    1.590
 pw_integral_ab_c1d_c1d_gs           67  9.0    0.190    0.216    0.676    1.531
 qs_energies_init_hamiltonians        1  3.0    0.000    0.000    1.440    1.440
 build_core_hamiltonian_matrix        1  4.0    0.000    0.000    1.435    1.435
 overlap_condnum                      1  5.0    0.000    0.000    1.417    1.435
 rs_grid_zero                       337 11.2    1.107    1.408    1.107    1.408
 dbt_tas_multiply                     8 11.5    0.000    0.000    1.399    1.399
 dbt_tas_total                        8 12.5    0.003    0.005    1.399    1.399
 xc_functional_eval                 330 10.8    0.001    0.002    0.737    1.344
 pbe_lda_eval                       330 11.8    0.737    1.343    0.737    1.343
 arnoldi_conjugate_gradient           5  6.0    0.021    0.026    1.343    1.343
 grid_integrate_task_list            67 10.0    0.160    1.208    0.160    1.208
 rs_gather_matrices                  67 10.0    0.003    0.019    0.587    1.202
 update_ks_atom                      67  8.0    0.126    0.309    0.936    1.122
 pw_derive                          597 11.3    1.008    1.115    1.008    1.115
 pw_copy                           1000 10.6    0.935    1.079    0.935    1.079
 dbt_tas_dbm                          8 13.5    0.000    0.000    1.052    1.053
 abc_contract                      1725  9.0    0.281    1.043    0.281    1.043
 transfer_rs2pw_30                   67  9.0    0.373    0.423    0.932    1.024
 dbm_multiply                         8 15.5    0.763    0.953    0.763    0.953
 dbt_tas_mm_1N                        6 14.5    0.000    0.000    0.754    0.944
 pw_gather_p                        667 11.8    0.721    0.898    0.721    0.898
 calculate_rho0_atom                268  9.0    0.849    0.897    0.849    0.897
 pw_scatter_p                       731 12.1    0.792    0.859    0.792    0.859
 dbcsr_sym_matrix_vector_mult      7005  7.0    0.050    0.054    0.768    0.846
 mp_bcast_dm                       2278  9.0    0.810    0.835    0.810    0.835
 mp_sendrecv_dv                   25594 10.0    0.721    0.826    0.721    0.826
 integrate_four_center_getP          67 10.0    0.033    0.045    0.727    0.807
 pw_poisson_rebuild                  67  9.0    0.000    0.000    0.741    0.766
 ps_wavelet_create                    1 10.0    0.000    0.000    0.741    0.766
 RS_z_slice_distribution              1 11.0    0.194    0.217    0.741    0.766
 transfer_pw2rs_10                   67 12.0    0.077    0.087    0.457    0.749
 postprocess_bse                      1  9.0    0.000    0.000    0.642    0.670
 cp_fm_uplo_to_full                 176  8.3    0.536    0.657    0.536    0.657
 mp_isend_dm3                      2960 11.5    0.348    0.641    0.348    0.641
 pw_poisson_set                      68  8.9    0.001    0.002    0.609    0.631
 pw_copy_to_array                   667 11.8    0.472    0.626    0.472    0.626
 create_integ_mat                     4  6.0    0.003    0.004    0.566    0.609
 array2fm                             4  7.0    0.000    0.000    0.522    0.602
 cp_fm_cholesky_invert              101  8.0    0.533    0.550    0.533    0.550
 dbcsr_multiply_generic             127  8.1    0.004    0.013    0.470    0.516
 dbcsr_rep_row_to_rep_col_vec      7005  8.0    0.019    0.024    0.289    0.501
 init_scf_run                         1  3.0    0.000    0.000    0.489    0.489
 get_oscillator_strengths             1 10.0    0.000    0.000    0.483    0.485
 scf_env_initial_rho_setup            1  4.0    0.000    0.000    0.452    0.453
 integrate_four_center_dist_KS       67 10.0    0.022    0.027    0.437    0.437
 cp_fm_cholesky_decompose           102  9.0    0.389    0.437    0.389    0.437
 pw_axpy                            665  9.3    0.347    0.428    0.347    0.428
 cp_fm_to_fm_submat_general         112 10.1    0.274    0.425    0.274    0.425
 copy_dbcsr_to_fm                   105  6.6    0.002    0.002    0.330    0.422
 cp_fm_redistribute_start            72  8.0    0.074    0.092    0.188    0.380
 fft_wrap_pw1pw2_30                 134 10.5    0.003    0.004    0.286    0.363
 pw_copy_from_array                 731 12.1    0.264    0.359    0.264    0.359
 mp_alltoall_i22                    348  9.2    0.248    0.350    0.248    0.350
 mp_alltoall_z11v                   268 13.5    0.269    0.344    0.269    0.344
 compute_Erpa_by_freq_int           100  8.0    0.001    0.001    0.333    0.335
 multiply_cannon                    127  9.1    0.008    0.009    0.281    0.322
 transfer_rs2pw_10                   67  9.0    0.112    0.134    0.273    0.317
 dbcsr_desymmetrize_deep            107  7.6    0.008    0.010    0.225    0.315
 mp_bcast_b_src                     139  7.1    0.130    0.308    0.130    0.308
 multiply_cannon_loop               127 10.1    0.005    0.009    0.254    0.295
 dbcsr_col_vec_to_rep_row          7005  8.0    0.023    0.029    0.197    0.287
 mp_sum_iv                          319  9.6    0.083    0.283    0.083    0.283
 pw_zero                            398 10.3    0.229    0.279    0.229    0.279
 dbt_tas_replicate                    8 13.5    0.062    0.083    0.222    0.250
 array2fm_fill                        4  8.0    0.040    0.063    0.152    0.231
 mp2_main_alloc_hfx                   1  4.0    0.096    0.230    0.096    0.230
 dbt_tas_estimate_result_nze          4 12.0    0.008    0.009    0.228    0.228
 mp_sum_i                            21  9.7    0.136    0.225    0.136    0.225
 restraint_control                    1  2.0    0.000    0.000    0.135    0.224
 multiply_cannon_multrec           1760 11.1    0.197    0.222    0.199    0.223
 dbcsr_add_d                      10559  7.0    0.005    0.005    0.038    0.220
 dbcsr_add_anytype                10559  8.0    0.006    0.028    0.033    0.215
 mp_rank_compare                   1398 12.9    0.198    0.210    0.198    0.210
 array2fm_info                        4  8.0    0.160    0.198    0.167    0.199
 mp_wait                            158  9.0    0.113    0.190    0.113    0.190
 qs_init_subsys                       1  2.0    0.003    0.003    0.190    0.190
 xz_to_yz                           134 11.0    0.007    0.017    0.149    0.186
 mp_isendrecv_dv                  51188 12.0    0.041    0.181    0.041    0.181
 cp_fm_symm                          67  7.0    0.176    0.180    0.176    0.180
 yz_to_xz                           134 14.0    0.009    0.015    0.137    0.178
 fm_general_add_bse_1_setup           5 11.2    0.159    0.174    0.159    0.174
 mult_B_with_W                        1  8.0    0.000    0.000    0.126    0.172
 get_multipoles_mo                    1 10.0    0.000    0.000    0.144    0.172
 calculate_dm_sparse                 66  6.0    0.000    0.001    0.154    0.169
 cp_dbcsr_plus_fm_fm_t               66  7.0    0.001    0.001    0.153    0.168
 dbcsr_complete_redistribute        241  8.5    0.032    0.038    0.149    0.165
 create_qs_kind_set                   1  2.0    0.000    0.000    0.161    0.161
 read_qs_kind                         4  3.0    0.070    0.087    0.161    0.161
 qs_env_setup                         1  3.0    0.000    0.000    0.157    0.159
 dbt_tas_communicate_buffer          16 15.9    0.002    0.003    0.120    0.159
 qs_env_rebuild_pw_env                2  3.5    0.000    0.000    0.156    0.159
 pw_env_rebuild                       1  5.0    0.000    0.000    0.156    0.159
 make_m2s                           254  9.1    0.003    0.003    0.139    0.155
 ao_to_mo_and_store_B_mult_gw_1       7  7.0    0.000    0.000    0.135    0.154
 mp_bcast_dv                       7075  9.0    0.094    0.152    0.094    0.152
 dbt_tas_replicate_communicate_       6 14.5    0.000    0.000    0.112    0.150
 -------------------------------------------------------------------------------

 The number of warnings for this run is : 1
 
 -------------------------------------------------------------------------------
  **** **** ******  **  PROGRAM ENDED AT                 2025-03-14 05:04:27.521
 ***** ** ***  *** **   PROGRAM RAN ON                                  n2cn0412
 **    ****   ******    PROGRAM RAN BY                                  metdyn02
 ***** **    ** ** **   PROGRAM PROCESS ID                               3521577
  **** **  *******  **  PROGRAM STOPPED IN /scratch/hpc-prf-metdyn/metdyn02_Remi
                                           /10_MOL/05_MOL/aUKBqsEOTmq69kFe5R_nOg
                                           /5k_set_final_qzvp/XTBCOC/TZVP/GW+BSE
                                           /RILIM
