 DBCSR| CPU Multiplication driver                                           XSMM (U)
 DBCSR| Multrec recursion limit                                              512 (U)
 DBCSR| Multiplication stack size                                           1000 (D)
 DBCSR| Maximum elements for images                                    UNLIMITED (U)
 DBCSR| Multiplicative factor virtual images                                   1 (U)
 DBCSR| Use multiplication densification                                       T (D)
 DBCSR| Multiplication size stacks                                             3 (U)
 DBCSR| Use memory pool for CPU allocation                                     F (U)
 DBCSR| Number of 3D layers                                               SINGLE (U)
 DBCSR| Use MPI memory allocation                                              F (U)
 DBCSR| Use RMA algorithm                                                      F (U)
 DBCSR| Use Communication thread                                               T (U)
 DBCSR| Communication thread load                                             60 (D)
 DBCSR| MPI: My process id                                                     0
 DBCSR| MPI: Number of processes                                              32
 DBCSR| OMP: Current number of threads                                         8
 DBCSR| OMP: Max number of threads                                             8
 DBCSR| Split modifier for TAS multiplication algorithm                  1.0E+00 (U)


  **** **** ******  **  PROGRAM STARTED AT               2025-06-23 12:50:43.495
 ***** ** ***  *** **   PROGRAM STARTED ON                 n2cn0614.ab2021.local
 **    ****   ******    PROGRAM STARTED BY                              metdyn02
 ***** **    ** ** **   PROGRAM PROCESS ID                                715535
  **** **  *******  **  PROGRAM STARTED IN /scratch/hpc-prf-metdyn/metdyn02_Remi
                                           /10_MOL/05_MOL/aUKBqsEOTmq69kFe5R_nOg
                                           /5k_set_final_qzvp/NESFIA01/mini-SZV/
                                           GW+BSE/1e-4

 CP2K| version string:                 CP2K version 2025.1 (Development Version)
 CP2K| source code revision number:                                  git:32ddf85
 CP2K| cp2kflags: omp libint fftw3 libxc libgrpp elpa parallel scalapack mpi_f08
 CP2K|             cosma xsmm plumed2 spglib libvori libbqb libvdwxc hdf5
 CP2K| is freely available from                            https://www.cp2k.org/
 CP2K| Program compiled at                         Mon May 19 11:32:37 CEST 2025
 CP2K| Program compiled on                                              n2login1
 CP2K| Program compiled for                                                local
 CP2K| Data directory path    /opt/software/pc2/EB-SW/software/CP2K/2024.1-foss-
 CP2K| Input file name                                                    GW.inp

 GLOBAL| Force Environment number                                              1
 GLOBAL| Basis set file name            /scratch/hpc-prf-metdyn/metdyn02_Remi/BA
 GLOBAL| Potential file name            /pc2/groups/hpc-prf-metdyn/metdyn02_Remi
 GLOBAL| MM Potential file name                                     MM_POTENTIAL
 GLOBAL| Coordinate file name                                      __STD_INPUT__
 GLOBAL| Method name                                                        CP2K
 GLOBAL| Project name                                                       MoS2
 GLOBAL| Run type                                                         ENERGY
 GLOBAL| FFT library                                                       FFTW3
 GLOBAL| Diagonalization library                                            ELPA
 GLOBAL| Cholesky decomposition library                                ScaLAPACK
 GLOBAL| DGEMM library                                                      BLAS
 GLOBAL| Minimum number of eigenvectors for ELPA usage                        16
 GLOBAL| Orthonormality check for eigenvectors                          DISABLED
 GLOBAL| Matrix multiplication library                                     COSMA
 GLOBAL| All-to-all communication in single precision                          F
 GLOBAL| FFTs using library dependent lengths                                  F
 GLOBAL| Grid backend                                                       AUTO
 GLOBAL| Global print level                                               MEDIUM
 GLOBAL| MPI I/O enabled                                                       T
 GLOBAL| Total number of message passing processes                            32
 GLOBAL| Number of threads for this process                                    8
 GLOBAL| This output is from process                                           0
 GLOBAL| OpenMP stack size per thread (OMP_STACKSIZE)                    default
 GLOBAL| CPU model name                          AMD EPYC 7763 64-Core Processor
 GLOBAL| CPUID                                                              1002

 MEMORY| system memory details [Kb]
 MEMORY|                        rank 0           min           max       average
 MEMORY| MemTotal            263897560     263897560     263897608     263897590
 MEMORY| MemFree             250994028     249119204     252308328     251290128
 MEMORY| Buffers                126084         25584        126084         99059
 MEMORY| Cached                7175832       6681484       9845188       7408336
 MEMORY| Slab                  2223840       1461308       2223840       1732142
 MEMORY| SReclaimable           994028        309160        994028        545373
 MEMORY| MemLikelyFree       259289972     259289972     259404288     259342896


 *** Fundamental physical constants (SI units) ***

 *** Literature: B. J. Mohr and B. N. Taylor,
 ***             CODATA recommended values of the fundamental physical
 ***             constants: 2006, Web Version 5.1
 ***             http://physics.nist.gov/constants

 Speed of light in vacuum [m/s]                             2.99792458000000E+08
 Magnetic constant or permeability of vacuum [N/A**2]       1.25663706143592E-06
 Electric constant or permittivity of vacuum [F/m]          8.85418781762039E-12
 Planck constant (h) [J*s]                                  6.62606896000000E-34
 Planck constant (h-bar) [J*s]                              1.05457162825177E-34
 Elementary charge [C]                                      1.60217648700000E-19
 Electron mass [kg]                                         9.10938215000000E-31
 Electron g factor [ ]                                     -2.00231930436220E+00
 Proton mass [kg]                                           1.67262163700000E-27
 Fine-structure constant                                    7.29735253760000E-03
 Rydberg constant [1/m]                                     1.09737315685270E+07
 Avogadro constant [1/mol]                                  6.02214179000000E+23
 Boltzmann constant [J/K]                                   1.38065040000000E-23
 Atomic mass unit [kg]                                      1.66053878200000E-27
 Bohr radius [m]                                            5.29177208590000E-11

 *** Conversion factors ***

 [u] -> [a.u.]                                              1.82288848426455E+03
 [Angstrom] -> [Bohr] = [a.u.]                              1.88972613288564E+00
 [a.u.] = [Bohr] -> [Angstrom]                              5.29177208590000E-01
 [a.u.] -> [s]                                              2.41888432650478E-17
 [a.u.] -> [fs]                                             2.41888432650478E-02
 [a.u.] -> [J]                                              4.35974393937059E-18
 [a.u.] -> [N]                                              8.23872205491840E-08
 [a.u.] -> [K]                                              3.15774647902944E+05
 [a.u.] -> [kJ/mol]                                         2.62549961709828E+03
 [a.u.] -> [kcal/mol]                                       6.27509468713739E+02
 [a.u.] -> [Pa]                                             2.94210107994716E+13
 [a.u.] -> [bar]                                            2.94210107994716E+08
 [a.u.] -> [atm]                                            2.90362800883016E+08
 [a.u.] -> [eV]                                             2.72113838565563E+01
 [a.u.] -> [Hz]                                             6.57968392072181E+15
 [a.u.] -> [1/cm] (wave numbers)                            2.19474631370540E+05
 [a.u./Bohr**2] -> [1/cm]                                   5.14048714338585E+03
 

 CELL_TOP| Volume [angstrom^3]:                                     27000.000000
 CELL_TOP| Vector a [angstrom    30.000     0.000     0.000   |a| =    30.000000
 CELL_TOP| Vector b [angstrom     0.000    30.000     0.000   |b| =    30.000000
 CELL_TOP| Vector c [angstrom     0.000     0.000    30.000   |c| =    30.000000
 CELL_TOP| Angle (b,c), alpha [degree]:                                90.000000
 CELL_TOP| Angle (a,c), beta  [degree]:                                90.000000
 CELL_TOP| Angle (a,b), gamma [degree]:                                90.000000
 CELL_TOP| Numerically orthorhombic:                                         YES
 CELL_TOP| Periodicity                                                      NONE

 GENERATE|  Preliminary Number of Bonds generated:                             0
 GENERATE|  Achieved consistency in connectivity generation.

 CELL| Volume [angstrom^3]:                                         27000.000000
 CELL| Vector a [angstrom]:      30.000     0.000     0.000   |a| =    30.000000
 CELL| Vector b [angstrom]:       0.000    30.000     0.000   |b| =    30.000000
 CELL| Vector c [angstrom]:       0.000     0.000    30.000   |c| =    30.000000
 CELL| Angle (b,c), alpha [degree]:                                    90.000000
 CELL| Angle (a,c), beta  [degree]:                                    90.000000
 CELL| Angle (a,b), gamma [degree]:                                    90.000000
 CELL| Numerically orthorhombic:                                             YES
 CELL| Periodicity                                                          NONE

 CELL_REF| Volume [angstrom^3]:                                     27000.000000
 CELL_REF| Vector a [angstrom    30.000     0.000     0.000   |a| =    30.000000
 CELL_REF| Vector b [angstrom     0.000    30.000     0.000   |b| =    30.000000
 CELL_REF| Vector c [angstrom     0.000     0.000    30.000   |c| =    30.000000
 CELL_REF| Angle (b,c), alpha [degree]:                                90.000000
 CELL_REF| Angle (a,c), beta  [degree]:                                90.000000
 CELL_REF| Angle (a,b), gamma [degree]:                                90.000000
 CELL_REF| Numerically orthorhombic:                                         YES
 CELL_REF| Periodicity                                                      NONE

 *******************************************************************************
 *******************************************************************************
 **                                                                           **
 **     #####                         ##              ##                      **
 **    ##   ##            ##          ##              ##                      **
 **   ##     ##                       ##            ######                    **
 **   ##     ##  ##   ##  ##   #####  ##  ##   ####   ##    #####    #####    **
 **   ##     ##  ##   ##  ##  ##      ## ##   ##      ##   ##   ##  ##   ##   **
 **   ##  ## ##  ##   ##  ##  ##      ####     ###    ##   ######   ######    **
 **    ##  ###   ##   ##  ##  ##      ## ##      ##   ##   ##       ##        **
 **     #######   #####   ##   #####  ##  ##  ####    ##    #####   ##        **
 **           ##                                                    ##        **
 **                                                                           **
 **                                                ... make the atoms dance   **
 **                                                                           **
 **            Copyright (C) by CP2K developers group (2000-2025)             **
 **                      J. Chem. Phys. 152, 194103 (2020)                    **
 **                                                                           **
 *******************************************************************************

 DFT| Spin restricted Kohn-Sham (RKS) calculation                            RKS
 DFT| Multiplicity                                                             1
 DFT| Number of spin states                                                    1
 DFT| Charge                                                                   0
 DFT| Self-interaction correction (SIC)                                       NO
 DFT| Cutoffs: density                                              1.000000E-10
 DFT|          gradient                                             1.000000E-10
 DFT|          tau                                                  1.000000E-10
 DFT|          cutoff_smoothing_range                               0.000000E+00
 DFT| XC density smoothing                                                  NONE
 DFT| XC derivatives                                                          PW

 FUNCTIONAL| PBE:
 FUNCTIONAL| J.P.Perdew, K.Burke, M.Ernzerhof, Phys. Rev. Letter, vol. 77, n 18,
 FUNCTIONAL|  pp. 3865-3868, (1996)sx=0.750sc=1.000{spin unpolarized}           


 QS| Method:                                                                GAPW
 QS| Density plane wave grid type                        NON-SPHERICAL FULLSPACE
 QS| Number of grid levels:                                                    4
 QS| Density cutoff [a.u.]:                                                250.0
 QS| Multi grid cutoff [a.u.]: 1) grid level                               250.0
 QS|                           2) grid level                                83.3
 QS|                           3) grid level                                27.8
 QS|                           4) grid level                                 9.3
 QS| Grid level progression factor:                                          3.0
 QS| Relative density cutoff [a.u.]:                                        50.0
 QS| Interaction thresholds: eps_pgf_orb:                                1.0E-12
 QS|                         eps_filter_matrix:                          0.0E+00
 QS|                         eps_core_charge:                            1.0E-14
 QS|                         eps_rho_gspace:                             1.0E-12
 QS|                         eps_rho_rspace:                             1.0E-12
 QS|                         eps_gvg_rspace:                             1.0E-06
 QS|                         eps_ppl:                                    1.0E-02
 QS|                         eps_ppnl:                                   1.0E-08
 QS| GAPW|      One center basis from orbital basis primitives
 QS| GAPW|                   eps_fit:                                    1.0E-04
 QS| GAPW|                   eps_iso:                                    1.0E-12
 QS| GAPW|                   eps_svd:                                    1.0E-08
 QS| GAPW|                   eps_cpc:                                    1.0E-12
 QS| GAPW|   atom-r-grid: quadrature:                                     GC_LOG
 QS| GAPW|      atom-s-grid:  max l :                                          2
 QS| GAPW|      max_l_rho0 :                                                   2


 ATOMIC KIND INFORMATION

  1. Atomic kind: N                                     Number of atoms:       4

     Orbital Basis Set                                    aug-SZV-MOLOPT-ae-mini

       Number of orbital shell sets:                                           2
       Number of orbital shells:                                               5
       Number of primitive Cartesian functions:                                7
       Number of Cartesian basis functions:                                    9
       Number of spherical basis functions:                                    9
       Norm type:                                                              2

       Normalised Cartesian orbitals:

                        Set   Shell   Orbital            Exponent    Coefficient

                          1       1    1s                0.112012       0.000000
                                                         0.285714       0.194997
                                                         0.878496       0.258372
                                                         3.780455      -0.193164

                          1       2    2s                0.112012      -0.247059
                                                         0.285714       0.355178
                                                         0.878496       0.105643
                                                         3.780455      -0.000189

                          1       3    2px               0.112012       0.000000
                                                         0.285714       0.116706
                                                         0.878496       0.736703
                                                         3.780455       1.171552
                          1       3    2py               0.112012       0.000000
                                                         0.285714       0.116706
                                                         0.878496       0.736703
                                                         3.780455       1.171552
                          1       3    2pz               0.112012       0.000000
                                                         0.285714       0.116706
                                                         0.878496       0.736703
                                                         3.780455       1.171552

                          1       4    3px               0.112012       0.096580
                                                         0.285714      -0.017996
                                                         0.878496       0.000162
                                                         3.780455       0.000013
                          1       4    3py               0.112012       0.096580
                                                         0.285714      -0.017996
                                                         0.878496       0.000162
                                                         3.780455       0.000013
                          1       4    3pz               0.112012       0.096580
                                                         0.285714      -0.017996
                                                         0.878496       0.000162
                                                         3.780455       0.000013

                          2       1    1s               99.106168       3.454863
                                                        18.052312       3.341413
                                                         4.885660       1.041372

     RI Auxiliary Basis Set             RI_aug-SZV-MOLOPT-ae-mini_N_RI_023_s_p_d

       Number of orbital shell sets:                                           9
       Number of orbital shells:                                               9
       Number of primitive Cartesian functions:                                9
       Number of Cartesian basis functions:                                   25
       Number of spherical basis functions:                                   23
       Norm type:                                                              2

       Normalised Cartesian orbitals:

                        Set   Shell   Orbital            Exponent    Coefficient

                          1       1    8dx2              0.247473       0.142917
                          1       1    8dxy              0.247473       0.247539
                          1       1    8dxz              0.247473       0.247539
                          1       1    8dy2              0.247473       0.142917
                          1       1    8dyz              0.247473       0.247539
                          1       1    8dz2              0.247473       0.142917

                          2       1    1s                0.269982       0.266939

                          3       1    5px               0.290292       0.303728
                          3       1    5py               0.290292       0.303728
                          3       1    5pz               0.290292       0.303728

                          4       1    2s                0.773829       0.588023

                          5       1    6px               1.337055       2.049400
                          5       1    6py               1.337055       2.049400
                          5       1    6pz               1.337055       2.049400

                          6       1    3s                2.228530       1.299942

                          7       1    9dx2              2.368474       7.442682
                          7       1    9dxy              2.368474      12.891104
                          7       1    9dxz              2.368474      12.891104
                          7       1    9dy2              2.368474       7.442682
                          7       1    9dyz              2.368474      12.891104
                          7       1    9dz2              2.368474       7.442682

                          8       1    7px               6.206242      13.962911
                          8       1    7py               6.206242      13.962911
                          8       1    7pz               6.206242      13.962911

                          9       1    4s                6.295867       2.832707

       Atomic covalent radius [Angstrom]:                                  0.750

       Atomic van der Waals radius [Angstrom]:                             1.550

     The atoms of this atomic kind are PAW atoms (GAPW):
       Hard Gaussian function radius:                                      1.512
       Rho0 radius:                                                        1.512
       Maximum GTO radius used for PAW projector construction:            24.566

     GAPW Soft Basis Set                             aug-SZV-MOLOPT-ae-mini_soft

       Number of orbital shell sets:                                           2
       Number of orbital shells:                                               5
       Number of primitive Cartesian functions:                                4
       Number of Cartesian basis functions:                                    9
       Number of spherical basis functions:                                    9
       Norm type:                                                              2

       Normalised Cartesian orbitals:

                        Set   Shell   Orbital            Exponent    Coefficient

                          1       1    1s                0.112012       0.000000
                                                         0.285714       0.194997
                                                         0.878496       0.258372
                                                         3.780455      -0.193164

                          1       2    2s                0.112012      -0.247059
                                                         0.285714       0.355178
                                                         0.878496       0.105643
                                                         3.780455      -0.000189

                          1       3    2px               0.112012       0.000000
                                                         0.285714       0.116706
                                                         0.878496       0.736703
                                                         3.780455       1.171552
                          1       3    2py               0.112012       0.000000
                                                         0.285714       0.116706
                                                         0.878496       0.736703
                                                         3.780455       1.171552
                          1       3    2pz               0.112012       0.000000
                                                         0.285714       0.116706
                                                         0.878496       0.736703
                                                         3.780455       1.171552

                          1       4    3px               0.112012       0.096580
                                                         0.285714      -0.017996
                                                         0.878496       0.000162
                                                         3.780455       0.000013
                          1       4    3py               0.112012       0.096580
                                                         0.285714      -0.017996
                                                         0.878496       0.000162
                                                         3.780455       0.000013
                          1       4    3pz               0.112012       0.096580
                                                         0.285714      -0.017996
                                                         0.878496       0.000162
                                                         3.780455       0.000013

                          2       1    1s         

     AE Potential information for                                            ALL

       Description:                                       All-electron potential
                                          Krack, Parrinello, PCCP 2, 2105 (2000)

       Gaussian exponent of the core charge distribution:               5.979100
       Electronic configuration (s p d ...):                           4   3   0

  2. Atomic kind: C                                     Number of atoms:       6

     Orbital Basis Set                                    aug-SZV-MOLOPT-ae-mini

       Number of orbital shell sets:                                           2
       Number of orbital shells:                                               5
       Number of primitive Cartesian functions:                                7
       Number of Cartesian basis functions:                                    9
       Number of spherical basis functions:                                    9
       Norm type:                                                              2

       Normalised Cartesian orbitals:

                        Set   Shell   Orbital            Exponent    Coefficient

                          1       1    2s                0.114558       0.000000
                                                         0.222289       0.161536
                                                         0.683483       0.214036
                                                         2.941249      -0.160017

                          1       2    3s                0.114558       0.000272
                                                         0.222289       0.256636
                                                         0.683483      -0.079244
                                                         2.941249       0.000032

                          1       3    3px               0.114558       0.000000
                                                         0.222289       0.085276
                                                         0.683483       0.538304
                                                         2.941249       0.856044
                          1       3    3py               0.114558       0.000000
                                                         0.222289       0.085276
                                                         0.683483       0.538304
                                                         2.941249       0.856044
                          1       3    3pz               0.114558       0.000000
                                                         0.222289       0.085276
                                                         0.683483       0.538304
                                                         2.941249       0.856044

                          1       4    4px               0.114558      -0.035043
                                                         0.222289      -0.159067
                                                         0.683483       0.106927
                                                         2.941249      -0.036832
                          1       4    4py               0.114558      -0.035043
                                                         0.222289      -0.159067
                                                         0.683483       0.106927
                                                         2.941249      -0.036832
                          1       4    4pz               0.114558      -0.035043
                                                         0.222289      -0.159067
                                                         0.683483       0.106927
                                                         2.941249      -0.036832

                          2       1    1s               71.616837       2.707801
                                                        13.045096       2.618883
                                                         3.530512       0.816191

     RI Auxiliary Basis Set             RI_aug-SZV-MOLOPT-ae-mini_N_RI_022_s_p_d

       Number of orbital shell sets:                                          10
       Number of orbital shells:                                              10
       Number of primitive Cartesian functions:                               10
       Number of Cartesian basis functions:                                   24
       Number of spherical basis functions:                                   22
       Norm type:                                                              2

       Normalised Cartesian orbitals:

                        Set   Shell   Orbital            Exponent    Coefficient

                          1       1    9dx2              0.319489       0.223463
                          1       1    9dxy              0.319489       0.387050
                          1       1    9dxz              0.319489       0.387050
                          1       1    9dy2              0.319489       0.223463
                          1       1    9dyz              0.319489       0.387050
                          1       1    9dz2              0.319489       0.223463

                          2       1    1s                0.357304       0.329373

                          3       1    7px               0.413040       0.471987
                          3       1    7py               0.413040       0.471987
                          3       1    7pz               0.413040       0.471987

                          4       1    2s                0.585920       0.477297

                          5       1    3s                0.962549       0.692592

                          6       1    8px               1.175289       1.744299
                          6       1    8py               1.175289       1.744299
                          6       1    8pz               1.175289       1.744299

                          7       1    4s                1.583093       1.005866

                          8       1   10dx2              1.968757       5.385741
                          8       1   10dxy              1.968757       9.328377
                          8       1   10dxz              1.968757       9.328377
                          8       1   10dy2              1.968757       5.385741
                          8       1   10dyz              1.968757       9.328377
                          8       1   10dz2              1.968757       5.385741

                          9       1    5s                2.602827       1.460475

                         10       1    6s                4.278785       2.120315

       Atomic covalent radius [Angstrom]:                                  0.770

       Atomic van der Waals radius [Angstrom]:                             1.700

     The atoms of this atomic kind are PAW atoms (GAPW):
       Hard Gaussian function radius:                                      1.512
       Rho0 radius:                                                        1.512
       Maximum GTO radius used for PAW projector construction:            24.566

     GAPW Soft Basis Set                             aug-SZV-MOLOPT-ae-mini_soft

       Number of orbital shell sets:                                           2
       Number of orbital shells:                                               5
       Number of primitive Cartesian functions:                                5
       Number of Cartesian basis functions:                                    9
       Number of spherical basis functions:                                    9
       Norm type:                                                              2

       Normalised Cartesian orbitals:

                        Set   Shell   Orbital            Exponent    Coefficient

                          1       1    2s                0.114558       0.000000
                                                         0.222289       0.161536
                                                         0.683483       0.214036
                                                         2.941249      -0.160017

                          1       2    3s                0.114558       0.000272
                                                         0.222289       0.256636
                                                         0.683483      -0.079244
                                                         2.941249       0.000032

                          1       3    3px               0.114558       0.000000
                                                         0.222289       0.085276
                                                         0.683483       0.538304
                                                         2.941249       0.856044
                          1       3    3py               0.114558       0.000000
                                                         0.222289       0.085276
                                                         0.683483       0.538304
                                                         2.941249       0.856044
                          1       3    3pz               0.114558       0.000000
                                                         0.222289       0.085276
                                                         0.683483       0.538304
                                                         2.941249       0.856044

                          1       4    4px               0.114558      -0.035043
                                                         0.222289      -0.159067
                                                         0.683483       0.106927
                                                         2.941249      -0.036832
                          1       4    4py               0.114558      -0.035043
                                                         0.222289      -0.159067
                                                         0.683483       0.106927
                                                         2.941249      -0.036832
                          1       4    4pz               0.114558      -0.035043
                                                         0.222289      -0.159067
                                                         0.683483       0.106927
                                                         2.941249      -0.036832

                          2       1    1s                3.530512       0.816191

     AE Potential information for                                            ALL

       Description:                                       All-electron potential
                                          Krack, Parrinello, PCCP 2, 2105 (2000)

       Gaussian exponent of the core charge distribution:               4.109048
       Electronic configuration (s p d ...):                           4   2   0

  3. Atomic kind: H                                     Number of atoms:       6

     Orbital Basis Set                                    aug-SZV-MOLOPT-ae-mini

       Number of orbital shell sets:                                           1
       Number of orbital shells:                                               4
       Number of primitive Cartesian functions:                                7
       Number of Cartesian basis functions:                                    6
       Number of spherical basis functions:                                    6
       Norm type:                                                              2

       Normalised Cartesian orbitals:

                        Set   Shell   Orbital            Exponent    Coefficient

                          1       1    1s                0.065428       0.000000
                                                         0.100112       0.016532
                                                         0.243077       0.102760
                                                         0.625955       0.185857
                                                         1.822143       0.188385
                                                         6.513144       0.143430
                                                        35.523221       0.095030

                          1       2    2s                0.065428       0.083549
                                                         0.100112       0.009605
                                                         0.243077       0.002524
                                                         0.625955       0.013457
                                                         1.822143       0.000000
                                                         6.513144       0.000000
                                                        35.523221       0.000000

                          1       3    3s                0.065428       0.037407
                                                         0.100112      -0.169070
                                                         0.243077      -0.018899
                                                         0.625955       0.012806
                                                         1.822143       0.000000
                                                         6.513144       0.000000
                                                        35.523221       0.000000

                          1       4    2px               0.065428       0.059908
                                                         0.100112      -0.023770
                                                         0.243077       0.000032
                                                         0.625955       0.017779
                                                         1.822143       0.000000
                                                         6.513144       0.000000
                                                        35.523221       0.000000
                          1       4    2py               0.065428       0.059908
                                                         0.100112      -0.023770
                                                         0.243077       0.000032
                                                         0.625955       0.017779
                                                         1.822143       0.000000
                                                         6.513144       0.000000
                                                        35.523221       0.000000
                          1       4    2pz               0.065428       0.059908
                                                         0.100112      -0.023770
                                                         0.243077       0.000032
                                                         0.625955       0.017779
                                                         1.822143       0.000000
                                                         6.513144       0.000000
                                                        35.523221       0.000000

     RI Auxiliary Basis Set             RI_aug-SZV-MOLOPT-ae_N_RI_007_s_p_d_f_g_

       Number of orbital shell sets:                                           5
       Number of orbital shells:                                               5
       Number of primitive Cartesian functions:                                5
       Number of Cartesian basis functions:                                    7
       Number of spherical basis functions:                                    7
       Norm type:                                                              2

       Normalised Cartesian orbitals:

                        Set   Shell   Orbital            Exponent    Coefficient

                          1       1    1s                0.148777       0.170731

                          2       1    5px               0.367452       0.407794
                          2       1    5py               0.367452       0.407794
                          2       1    5pz               0.367452       0.407794

                          3       1    2s                0.510503       0.430437

                          4       1    3s                1.106366       0.768837

                          5       1    4s                5.955292       2.716986

       Atomic covalent radius [Angstrom]:                                  0.320

       Atomic van der Waals radius [Angstrom]:                             1.090

     The atoms of this atomic kind are PAW atoms (GAPW):
       Hard Gaussian function radius:                                      1.200
       Rho0 radius:                                                        1.200
       Maximum GTO radius used for PAW projector construction:            24.566

     GAPW Soft Basis Set                             aug-SZV-MOLOPT-ae-mini_soft

       Number of orbital shell sets:                                           1
       Number of orbital shells:                                               4
       Number of primitive Cartesian functions:                                6
       Number of Cartesian basis functions:                                    6
       Number of spherical basis functions:                                    6
       Norm type:                                                              2

       Normalised Cartesian orbitals:

                        Set   Shell   Orbital            Exponent    Coefficient

                          1       1    1s                0.065428       0.000000
                                                         0.100112       0.016532
                                                         0.243077       0.102760
                                                         0.625955       0.185857
                                                         1.822143       0.188385
                                                         6.513144       0.000000

                          1       2    2s                0.065428       0.083549
                                                         0.100112       0.009605
                                                         0.243077       0.002524
                                                         0.625955       0.013457
                                                         1.822143       0.000000
                                                         6.513144       0.000000

                          1       3    3s                0.065428       0.037407
                                                         0.100112      -0.169070
                                                         0.243077      -0.018899
                                                         0.625955       0.012806
                                                         1.822143       0.000000
                                                         6.513144       0.000000

                          1       4    2px               0.065428       0.059908
                                                         0.100112      -0.023770
                                                         0.243077       0.000032
                                                         0.625955       0.017779
                                                         1.822143       0.000000
                                                         6.513144       0.000000
                          1       4    2py               0.065428       0.059908
                                                         0.100112      -0.023770
                                                         0.243077       0.000032
                                                         0.625955       0.017779
                                                         1.822143       0.000000
                                                         6.513144       0.000000
                          1       4    2pz               0.065428       0.059908
                                                         0.100112      -0.023770
                                                         0.243077       0.000032
                                                         0.625955       0.017779
                                                         1.822143       0.000000
                                                         6.513144       0.000000

     AE Potential information for                                            ALL

       Description:                                       All-electron potential
                                          Krack, Parrinello, PCCP 2, 2105 (2000)

       Gaussian exponent of the core charge distribution:              12.500000
       Electronic configuration (s p d ...):                           1   0   0

  4. Atomic kind: O                                     Number of atoms:       1

     Orbital Basis Set                                    aug-SZV-MOLOPT-ae-mini

       Number of orbital shell sets:                                           2
       Number of orbital shells:                                               5
       Number of primitive Cartesian functions:                                7
       Number of Cartesian basis functions:                                    9
       Number of spherical basis functions:                                    9
       Norm type:                                                              2

       Normalised Cartesian orbitals:

                        Set   Shell   Orbital            Exponent    Coefficient

                          1       1    1s                0.162491       0.000000
                                                         0.380388       0.241685
                                                         1.169596       0.320234
                                                         5.033151      -0.239413

                          1       2    2s                0.162491       0.289618
                                                         0.380388      -0.257800
                                                         1.169596      -0.000000
                                                         5.033151      -0.000284

                          1       3    2px               0.162491       0.000000
                                                         0.380388       0.166902
                                                         1.169596       1.053568
                                                         5.033151       1.675450
                          1       3    2py               0.162491       0.000000
                                                         0.380388       0.166902
                                                         1.169596       1.053568
                                                         5.033151       1.675450
                          1       3    2pz               0.162491       0.000000
                                                         0.380388       0.166902
                                                         1.169596       1.053568
                                                         5.033151       1.675450

                          1       4    3px               0.162491       0.166510
                                                         0.380388      -0.081234
                                                         1.169596      -0.994066
                                                         5.033151       0.014231
                          1       4    3py               0.162491       0.166510
                                                         0.380388      -0.081234
                                                         1.169596      -0.994066
                                                         5.033151       0.014231
                          1       4    3pz               0.162491       0.166510
                                                         0.380388      -0.081234
                                                         1.169596      -0.994066
                                                         5.033151       0.014231

                          2       1    1s              130.709321       4.251922
                                                        23.808866       4.112298
                                                         6.443608       1.281622

     RI Auxiliary Basis Set             RI_aug-SZV-MOLOPT-ae-mini_N_RI_028_s_p_d

       Number of orbital shell sets:                                          10
       Number of orbital shells:                                              10
       Number of primitive Cartesian functions:                               10
       Number of Cartesian basis functions:                                   31
       Number of spherical basis functions:                                   28
       Norm type:                                                              2

       Normalised Cartesian orbitals:

                        Set   Shell   Orbital            Exponent    Coefficient

                          1       1    1s                0.357489       0.329502

                          2       1    5px               0.409748       0.467289
                          2       1    5py               0.409748       0.467289
                          2       1    5pz               0.409748       0.467289

                          3       1    8dx2              0.443879       0.397304
                          3       1    8dxy              0.443879       0.688150
                          3       1    8dxz              0.443879       0.688150
                          3       1    8dy2              0.443879       0.397304
                          3       1    8dyz              0.443879       0.688150
                          3       1    8dz2              0.443879       0.397304

                          4       1    2s                1.054753       0.741777

                          5       1    6px               1.767021       2.903971
                          5       1    6py               1.767021       2.903971
                          5       1    6pz               1.767021       2.903971

                          6       1    9dx2              2.138835       6.226152
                          6       1    9dxy              2.138835      10.784012
                          6       1    9dxz              2.138835      10.784012
                          6       1    9dy2              2.138835       6.226152
                          6       1    9dyz              2.138835      10.784012
                          6       1    9dz2              2.138835       6.226152

                          7       1    3s                3.026195       1.635245

                          8       1   10dx2              8.012449      62.805651
                          8       1   10dxy              8.012449     108.782579
                          8       1   10dxz              8.012449     108.782579
                          8       1   10dy2              8.012449      62.805651
                          8       1   10dyz              8.012449     108.782579
                          8       1   10dz2              8.012449      62.805651

                          9       1    4s                8.361610       3.504512

                         10       1    7px               8.422062      20.450934
                         10       1    7py               8.422062      20.450934
                         10       1    7pz               8.422062      20.450934

       Atomic covalent radius [Angstrom]:                                  0.730

       Atomic van der Waals radius [Angstrom]:                             1.520

     The atoms of this atomic kind are PAW atoms (GAPW):
       Hard Gaussian function radius:                                      1.512
       Rho0 radius:                                                        1.512
       Maximum GTO radius used for PAW projector construction:            24.566

     GAPW Soft Basis Set                             aug-SZV-MOLOPT-ae-mini_soft

       Number of orbital shell sets:                                           2
       Number of orbital shells:                                               5
       Number of primitive Cartesian functions:                                3
       Number of Cartesian basis functions:                                    9
       Number of spherical basis functions:                                    9
       Norm type:                                                              2

       Normalised Cartesian orbitals:

                        Set   Shell   Orbital            Exponent    Coefficient

                          1       1    1s                0.162491       0.000000
                                                         0.380388       0.241685
                                                         1.169596       0.320234

                          1       2    2s                0.162491       0.289618
                                                         0.380388      -0.257800
                                                         1.169596      -0.000000

                          1       3    2px               0.162491       0.000000
                                                         0.380388       0.166902
                                                         1.169596       1.053568
                          1       3    2py               0.162491       0.000000
                                                         0.380388       0.166902
                                                         1.169596       1.053568
                          1       3    2pz               0.162491       0.000000
                                                         0.380388       0.166902
                                                         1.169596       1.053568

                          1       4    3px               0.162491       0.166510
                                                         0.380388      -0.081234
                                                         1.169596      -0.994066
                          1       4    3py               0.162491       0.166510
                                                         0.380388      -0.081234
                                                         1.169596      -0.994066
                          1       4    3pz               0.162491       0.166510
                                                         0.380388      -0.081234
                                                         1.169596      -0.994066

                          2       1    1s         

     AE Potential information for                                            ALL

       Description:                                       All-electron potential
                                          Krack, Parrinello, PCCP 2, 2105 (2000)

       Gaussian exponent of the core charge distribution:               8.154466
       Electronic configuration (s p d ...):                           4   4   0


 MOLECULE KIND INFORMATION


 All atoms are their own molecule, skipping detailed information


 TOTAL NUMBERS AND MAXIMUM NUMBERS

  Total number of            - Atomic kinds:                                   4
                             - Atoms:                                         17
                             - Shell sets:                                    28
                             - Shells:                                        79
                             - Primitive Cartesian functions:                119
                             - Cartesian basis functions:                    135
                             - Spherical basis functions:                    135

  Maximum angular momentum of the orbital basis functions:                     1


 MODULE QUICKSTEP: ATOMIC COORDINATES IN ANGSTROM

   Atom Kind Element         X             Y             Z       Z(eff)     Mass
      1    1 N     7     13.838083     16.655431     16.790746   7.0000  14.0067
      2    1 N     7     14.345219     17.278043     14.636947   7.0000  14.0067
      3    1 N     7     14.682575     15.984703     14.860596   7.0000  14.0067
      4    1 N     7     14.628509     14.356428     16.606333   7.0000  14.0067
      5    2 C     6     13.844968     17.613974     15.839589   6.0000  12.0107
      6    3 H     1     13.469467     18.618170     16.012460   1.0000   1.0079
      7    2 C     6     14.377802     15.596624     16.168605   6.0000  12.0107
      8    3 H     1     14.902675     11.381830     15.622767   1.0000   1.0079
      9    4 O     8     15.490436     15.633171     12.736110   8.0000  15.9994
     10    3 H     1     15.189923     16.569801     12.745867   1.0000   1.0079
     11    2 C     6     15.182204     13.515361     15.729901   6.0000  12.0107
     12    2 C     6     15.509740     13.865219     14.390612   6.0000  12.0107
     13    3 H     1     15.960706     13.148300     13.709668   1.0000   1.0079
     14    2 C     6     15.246087     15.145229     13.954427   6.0000  12.0107
     15    2 C     6     15.464209     12.120895     16.212215   6.0000  12.0107
     16    3 H     1     16.530533     11.875750     16.106307   1.0000   1.0079
     17    3 H     1     15.177869     12.029282     17.263890   1.0000   1.0079



 SCF PARAMETERS         Density guess:                                    ATOMIC
                        --------------------------------------------------------
                        max_scf:                                             500
                        max_scf_history:                                       0
                        max_diis:                                              4
                        --------------------------------------------------------
                        eps_scf:                                        1.00E-06
                        eps_scf_history:                                0.00E+00
                        eps_diis:                                       1.00E-01
                        eps_eigval:                                     1.00E-05
                        --------------------------------------------------------
                        level_shift [a.u.]:                             0.000000
                        added MOs                                        96    0
                        --------------------------------------------------------
                        Mixing method:                            BROYDEN_MIXING
                                                charge density mixing in g-space
                        --------------------------------------------------------
                        No outer SCF

 PW_GRID| Information for grid number                                          1
 PW_GRID| Grid distributed over                                    32 processors
 PW_GRID| Real space group dimensions                                    32    1
 PW_GRID| the grid is blocked:                                                NO
 PW_GRID| Cutoff [a.u.]                                                    250.0
 PW_GRID| spherical cutoff:                                                   NO
 PW_GRID|   Bounds   1           -202     202                Points:         405
 PW_GRID|   Bounds   2           -202     202                Points:         405
 PW_GRID|   Bounds   3           -202     202                Points:         405
 PW_GRID| Volume element (a.u.^3)  0.2743E-02     Volume (a.u.^3)    182205.0337
 PW_GRID| Grid span                                                    FULLSPACE
 PW_GRID|   Distribution                         Average         Max         Min
 PW_GRID|   G-Vectors                          2075941.4     2076030     2075625
 PW_GRID|   G-Rays                                5125.8        5126        5125
 PW_GRID|   Real Space Points                  2075941.4     2132325     1968300

 PW_GRID| Information for grid number                                          2
 PW_GRID| Number of the reference grid                                         1
 PW_GRID| Grid distributed over                                    32 processors
 PW_GRID| Real space group dimensions                                    32    1
 PW_GRID| the grid is blocked:                                                NO
 PW_GRID| Cutoff [a.u.]                                                     83.3
 PW_GRID| spherical cutoff:                                                   NO
 PW_GRID|   Bounds   1           -120     119                Points:         240
 PW_GRID|   Bounds   2           -120     119                Points:         240
 PW_GRID|   Bounds   3           -120     119                Points:         240
 PW_GRID| Volume element (a.u.^3)  0.1318E-01     Volume (a.u.^3)    182205.0337
 PW_GRID| Grid span                                                    FULLSPACE
 PW_GRID|   Distribution                         Average         Max         Min
 PW_GRID|   G-Vectors                           432000.0      432480      431760
 PW_GRID|   G-Rays                                1800.0        1802        1799
 PW_GRID|   Real Space Points                   432000.0      460800      403200

 PW_GRID| Information for grid number                                          3
 PW_GRID| Number of the reference grid                                         1
 PW_GRID| Grid distributed over                                    32 processors
 PW_GRID| Real space group dimensions                                    32    1
 PW_GRID| the grid is blocked:                                                NO
 PW_GRID| Cutoff [a.u.]                                                     27.8
 PW_GRID| spherical cutoff:                                                   NO
 PW_GRID|   Bounds   1            -67      67                Points:         135
 PW_GRID|   Bounds   2            -67      67                Points:         135
 PW_GRID|   Bounds   3            -67      67                Points:         135
 PW_GRID| Volume element (a.u.^3)  0.7406E-01     Volume (a.u.^3)    182205.0337
 PW_GRID| Grid span                                                    FULLSPACE
 PW_GRID|   Distribution                         Average         Max         Min
 PW_GRID|   G-Vectors                            76886.7       77085       76680
 PW_GRID|   G-Rays                                 569.5         571         568
 PW_GRID|   Real Space Points                    76886.7       91125       72900

 PW_GRID| Information for grid number                                          4
 PW_GRID| Number of the reference grid                                         1
 PW_GRID| Grid distributed over                                    32 processors
 PW_GRID| Real space group dimensions                                    32    1
 PW_GRID| the grid is blocked:                                                NO
 PW_GRID| Cutoff [a.u.]                                                      9.3
 PW_GRID| spherical cutoff:                                                   NO
 PW_GRID|   Bounds   1            -40      39                Points:          80
 PW_GRID|   Bounds   2            -40      39                Points:          80
 PW_GRID|   Bounds   3            -40      39                Points:          80
 PW_GRID| Volume element (a.u.^3)  0.3559         Volume (a.u.^3)    182205.0337
 PW_GRID| Grid span                                                    FULLSPACE
 PW_GRID|   Distribution                         Average         Max         Min
 PW_GRID|   G-Vectors                            16000.0       16160       15920
 PW_GRID|   G-Rays                                 200.0         202         199
 PW_GRID|   Real Space Points                    16000.0       19200       12800

 POISSON| Solver                                                         WAVELET
 POISSON| Wavelet| Scaling function                                           40
 POISSON| Periodicity                                                       NONE

 RS_GRID| Information for grid number                                          1
 RS_GRID|   Bounds   1           -202     202                Points:         405
 RS_GRID|   Bounds   2           -202     202                Points:         405
 RS_GRID|   Bounds   3           -202     202                Points:         405
 RS_GRID| Real space distribution over                                  2 groups
 RS_GRID| Real space distribution along direction                              1
 RS_GRID| Border size                                                         33
 RS_GRID| Real space distribution over                                  4 groups
 RS_GRID| Real space distribution along direction                              2
 RS_GRID| Border size                                                         33
 RS_GRID| Real space distribution over                                  4 groups
 RS_GRID| Real space distribution along direction                              3
 RS_GRID| Border size                                                         33
 RS_GRID|   Distribution                         Average         Max         Min
 RS_GRID|   Planes                                 268.5         269         268
 RS_GRID|   Distribution                         Average         Max         Min
 RS_GRID|   Planes                                 167.2         168         167
 RS_GRID|   Distribution                         Average         Max         Min
 RS_GRID|   Planes                                 167.2         168         167

 RS_GRID| Information for grid number                                          2
 RS_GRID|   Bounds   1           -120     119                Points:         240
 RS_GRID|   Bounds   2           -120     119                Points:         240
 RS_GRID|   Bounds   3           -120     119                Points:         240
 RS_GRID| Real space distribution over                                  2 groups
 RS_GRID| Real space distribution along direction                              1
 RS_GRID| Border size                                                         35
 RS_GRID| Real space distribution over                                  4 groups
 RS_GRID| Real space distribution along direction                              2
 RS_GRID| Border size                                                         35
 RS_GRID| Real space distribution over                                  4 groups
 RS_GRID| Real space distribution along direction                              3
 RS_GRID| Border size                                                         35
 RS_GRID|   Distribution                         Average         Max         Min
 RS_GRID|   Planes                                 190.0         190         190
 RS_GRID|   Distribution                         Average         Max         Min
 RS_GRID|   Planes                                 130.0         130         130
 RS_GRID|   Distribution                         Average         Max         Min
 RS_GRID|   Planes                                 130.0         130         130

 RS_GRID| Information for grid number                                          3
 RS_GRID|   Bounds   1            -67      67                Points:         135
 RS_GRID|   Bounds   2            -67      67                Points:         135
 RS_GRID|   Bounds   3            -67      67                Points:         135
 RS_GRID| Real space fully replicated
 RS_GRID| Group size                                                           1

 RS_GRID| Information for grid number                                          4
 RS_GRID|   Bounds   1            -40      39                Points:          80
 RS_GRID|   Bounds   2            -40      39                Points:          80
 RS_GRID|   Bounds   3            -40      39                Points:          80
 RS_GRID| Real space fully replicated
 RS_GRID| Group size                                                           1

  HFX_INFO| Replica ID:                                                        1
  HFX_INFO| FRACTION:                                               0.2500000000
  HFX_INFO| Interaction Potential:                                       COULOMB
  HFX_INFO| EPS_SCHWARZ:                                                 1.0E-10
  HFX_INFO| EPS_SCHWARZ_FORCES                                           1.0E-08
  HFX_INFO| EPS_STORAGE_SCALING:                                         1.0E+00
  HFX_INFO| NBINS:                                                            64
  HFX_INFO| BLOCK_SIZE:                                                        1
  HFX_INFO| Number of periodic shells considered:                           NONE
  HFX_INFO| Number of periodic cells considered:                            NONE

 
 RI-RPA| using GPW style
 

 OVERLAP MATRIX CONDITION NUMBER
 1-Norm Condition Number (Estimate)
   CN : |A|*|A^-1|:  1.926E+001 *  4.438E+003   = 8.549E+004  Log(1-CN):  4.9319
 1-Norm and 2-Norm Condition Numbers using Diagonalization
   CN : |A|*|A^-1|:  1.926E+001 *  5.591E+003   = 1.077E+005  Log(1-CN):  5.0322
   CN : max/min ev:  9.578E+000 /  4.049E-004   = 2.366E+004  Log(2-CN):  4.3739

 Number of electrons:                                                         78
 Number of occupied orbitals:                                                 39
 Number of molecular orbitals:                                               135

 Number of orbital functions:                                                135
 Number of independent orbital functions:                                    135

 Extrapolation method: initial_guess

 Atomic guess: The first density matrix is obtained in terms of atomic orbitals
               and electronic configurations assigned to each atomic kind

 Guess for atomic kind: N

 Electronic structure
    Total number of core electrons                                          0.00
    Total number of valence electrons                                       7.00
    Total number of electrons                                               7.00
    Multiplicity                                                   not specified
    S      2.00  2.00
    P      3.00


 *******************************************************************************
                  Iteration          Convergence                     Energy [au]
 *******************************************************************************
                          1        0.395400                     -53.293349372466
                          2        0.225125                     -53.331168721159
                          3        0.860871E-03                 -53.359344571212
                          4        0.144713E-03                 -53.359344854486
                          5        0.187084E-05                 -53.359344864503
                          6        0.788718E-06                 -53.359344864504

 Energy components [Hartree]           Total Energy ::          -53.359344864504
                                        Band Energy ::          -30.026500782069
                                     Kinetic Energy ::           52.335746944580
                                   Potential Energy ::         -105.695091809084
                                      Virial (-V/T) ::            2.019558293894
                                        Core Energy ::          -72.545816435736
                                          XC Energy ::           -6.074236140041
                                     Coulomb Energy ::           25.260707711273

 Orbital energies  State     L     Occupation   Energy[a.u.]          Energy[eV]

                       1     0          2.000     -13.929313         -379.035885
                       2     0          2.000      -0.691080          -18.805237

                       1     1          3.000      -0.261905           -7.126799


 Total Electron Density at R=0:                                       127.566392

 Guess for atomic kind: C

 Electronic structure
    Total number of core electrons                                          0.00
    Total number of valence electrons                                       6.00
    Total number of electrons                                               6.00
    Multiplicity                                                   not specified
    S      2.00  2.00
    P      2.00


 *******************************************************************************
                  Iteration          Convergence                     Energy [au]
 *******************************************************************************
                          1        0.110940                     -36.966846197933
                          2        0.618479E-01                 -36.973380131832
                          3        0.312040E-03                 -36.976281169724
                          4        0.543046E-05                 -36.976281232084
                          5        0.506043E-09                 -36.976281232104

 Energy components [Hartree]           Total Energy ::          -36.976281232104
                                        Band Energy ::          -20.794821508944
                                     Kinetic Energy ::           36.488299270274
                                   Potential Energy ::          -73.464580502377
                                      Virial (-V/T) ::            2.013373655983
                                        Core Energy ::          -49.914993802944
                                          XC Energy ::           -4.745664989265
                                     Coulomb Energy ::           17.684377560105

 Orbital energies  State     L     Occupation   Energy[a.u.]          Energy[eV]

                       1     0          2.000      -9.777613         -266.062376
                       2     0          2.000      -0.465310          -12.661731

                       1     1          2.000      -0.154488           -4.203828


 Total Electron Density at R=0:                                        77.917232

 Guess for atomic kind: H

 Electronic structure
    Total number of core electrons                                          0.00
    Total number of valence electrons                                       1.00
    Total number of electrons                                               1.00
    Multiplicity                                                   not specified
    S      1.00


 *******************************************************************************
                  Iteration          Convergence                     Energy [au]
 *******************************************************************************
                          1        0.962691E-02                  -0.444368661081
                          2        0.109107E-02                  -0.444473520424
                          3        0.117094E-03                  -0.444476577889
                          4        0.851579E-07                  -0.444476596085

 Energy components [Hartree]           Total Energy ::           -0.444476596085
                                        Band Energy ::           -0.233451424826
                                     Kinetic Energy ::            0.431260327433
                                   Potential Energy ::           -0.875736923518
                                      Virial (-V/T) ::            2.030645686170
                                        Core Energy ::           -0.494218917327
                                          XC Energy ::           -0.231476335377
                                     Coulomb Energy ::            0.281218656618

 Orbital energies  State     L     Occupation   Energy[a.u.]          Energy[eV]

                       1     0          1.000      -0.233451           -6.352536


 Total Electron Density at R=0:                                         0.270947

 Guess for atomic kind: O

 Electronic structure
    Total number of core electrons                                          0.00
    Total number of valence electrons                                       8.00
    Total number of electrons                                               8.00
    Multiplicity                                                   not specified
    S      2.00  2.00
    P      4.00


 *******************************************************************************
                  Iteration          Convergence                     Energy [au]
 *******************************************************************************
                          1        0.863863                     -73.413444334034
                          2        0.475457                     -73.501944400060
                          3        0.103564E-02                 -73.557269561969
                          4        0.190635E-03                 -73.557270044022
                          5        0.125020E-05                 -73.557270061478
                          6        0.707527E-06                 -73.557270061479

 Energy components [Hartree]           Total Energy ::          -73.557270061479
                                        Band Energy ::          -40.781734047812
                                     Kinetic Energy ::           71.485611268676
                                   Potential Energy ::         -145.042881330154
                                      Virial (-V/T) ::            2.028980080831
                                        Core Energy ::         -101.135954089231
                                          XC Energy ::           -7.619849605917
                                     Coulomb Energy ::           35.198533633670

 Orbital energies  State     L     Occupation   Energy[a.u.]          Energy[eV]

[...]
 fft_wrap_pw1pw2_250               1221 11.1    2.220    2.332   47.610   48.359
 pw_poisson_solve                    82  8.0    0.932    1.011   45.814   45.897
 fft3d_ps                          1713 11.9   16.855   18.240   36.271   37.497
 ps_wavelet_solve                    82  9.0   25.872   28.460   33.460   33.636
 qs_vxc_create                       82  8.0    0.001    0.001   31.313   31.313
 xc_vxc_pw_create                    81  9.0    0.855    0.901   31.312   31.312
 mp_alltoall_d54                     82 10.0    4.438   26.233    4.438   26.233
 xc_pw_derive                       486 11.0    0.003    0.003   22.117   22.970
 qs_rho_update_rho_low               82  5.0    0.001    0.001   21.585   21.586
 calculate_rho_elec                  82  6.0    0.642    0.659   21.506   21.507
 mp_alltoall_z22v                  1713 13.9   14.198   17.112   14.198   17.112
 gspace_mixing                       80  5.0    0.626    0.643   16.993   16.993
 xc_rho_set_and_dset_create          81 10.0    0.464    0.506   15.029   16.018
 xc_pw_divergence                    81 10.0    0.002    0.002   14.992   15.836
 broyden_mixing                      80  6.0   12.907   13.140   13.207   13.243
 density_rs2pw                       82  7.0    0.003    0.003   11.762   12.194
 x_to_yz                            896 13.1    2.965    3.375   10.174   11.194
 yz_to_x                            817 12.8    2.222    2.407    9.210   11.134
 grid_collocate_task_list            82  7.0    8.977    9.432    8.977    9.432
 sum_up_and_integrate                82  8.0    0.001    0.001    9.010    9.023
 integrate_v_rspace                  82  9.0    0.002    0.002    8.885    8.911
 potential_pw2rs                     82 10.0    0.019    0.020    8.599    8.621
 transfer_pw2rs                     411 10.6    0.004    0.006    6.509    6.599
 transfer_rs2pw                     411  8.4    0.005    0.007    6.073    6.486
 prepare_gapw_den                    82  8.0    0.001    0.001    6.188    6.256
 put_rho0_on_grid                    82  9.0    0.654    0.688    6.071    6.140
 mp_waitany                       10868 11.5    5.073    5.695    5.073    5.695
 mp_alltoall_d45                     83 10.0    3.028    4.731    3.028    4.731
 transfer_pw2rs_250                 165 11.0    1.763    1.861    4.311    4.422
 xc_functional_eval                 405 10.5    0.001    0.001    3.410    4.403
 pbe_lda_eval                       405 11.5    3.409    4.402    3.409    4.402
 transfer_rs2pw_250                 165 10.0    1.652    1.777    3.902    4.343
 pw_scatter_p                       896 12.1    4.085    4.262    4.085    4.262
 mp2_main                             1  3.0    0.000    0.000    4.202    4.245
 pw_gather_p                        817 11.8    3.841    4.214    3.841    4.214
 hfx_ks_matrix                       82  8.0    0.001    0.001    3.291    3.307
 mp_alltoall_d11v                  1624  9.5    1.658    3.307    1.658    3.307
 integrate_four_center               82  9.0    1.703    2.269    3.284    3.300
 pw_derive                          732 11.3    3.042    3.242    3.042    3.242
 mp2_gpw_main                         1  4.0    0.000    0.000    3.187    3.190
 rpa_ri_compute_en                    1  5.0    0.000    0.000    2.971    2.971
 rpa_num_int                          1  6.0    0.000    0.000    2.946    2.946
 integrate_vhg0_rspace               82  8.0    0.026    0.041    2.687    2.727
 mp_sum_d                          3656  6.7    1.207    2.180    1.207    2.180
 pw_copy                           1225 10.6    1.979    2.094    1.979    2.094
 cp_fm_diag_elpa                     87  7.0    0.000    0.000    1.892    1.897
 cp_fm_diag_elpa_base                87  8.0    1.802    1.869    1.886    1.886
 pw_poisson_set                      83  8.9    0.002    0.002    1.533    1.616
 start_bse_calculation                1  7.0    0.000    0.000    1.609    1.609
 cp2k_distribution_to_z_slices       82  9.0    0.765    0.881    1.470    1.594
 mp_waitall_1                     19654 12.1    1.163    1.524    1.163    1.524
 pw_copy_to_array                   817 11.8    1.312    1.416    1.312    1.416
 qs_energies_init_hamiltonians        1  3.0    0.000    0.000    1.377    1.377
 pw_axpy                            815  9.3    1.221    1.358    1.221    1.358
 build_core_hamiltonian_matrix        1  4.0    0.000    0.000    1.315    1.315
 overlap_condnum                      1  5.0    0.000    0.000    1.314    1.315
 transfer_rs2pw_90                   82  9.0    0.272    0.301    1.030    1.292
 pw_copy_from_array                 896 12.1    1.128    1.222    1.128    1.222
 rs_grid_zero                       412 11.2    1.123    1.179    1.123    1.179
 fft_wrap_pw1pw2_90                 164 10.5    0.057    0.062    1.010    1.174
 transfer_pw2rs_30                   82 12.0    0.565    0.627    1.027    1.153
 cp_fm_power                          2  7.5    0.013    0.014    1.138    1.144
 transfer_pw2rs_90                   82 12.0    0.275    0.298    0.973    1.128
 compute_GW_self_energy             100  7.0    0.000    0.002    1.077    1.093
 mp_sync                            857  9.5    0.620    1.070    0.620    1.070
 pw_integral_ab_c1d_c1d_gs           82  9.0    0.886    0.902    0.973    1.029
 transfer_rs2pw_30                   82  9.0    0.264    0.308    0.872    1.003
 compute_GW_self_energy_deep        100  8.0    0.654    0.672    0.982    0.999
 mp_sendrecv_dv                    5084 10.0    0.811    0.933    0.811    0.933
 qs_scf_new_mos                      81  5.0    0.001    0.001    0.745    0.916
 compute_vec_Sigma_x_minus_vxc_       1  4.0    0.000    0.000    0.866    0.866
 init_scf_run                         1  3.0    0.000    0.000    0.854    0.854
 scf_env_initial_rho_setup            1  4.0    0.000    0.000    0.848    0.848
 create_hermitian_form_of_ABBA        1  8.0    0.000    0.000    0.832    0.837
 parallel_gemm_fm                   382  8.4    0.000    0.000    0.760    0.790
 parallel_gemm_fm_cosma             382  9.4    0.760    0.790    0.760    0.790
 copy_dbcsr_to_fm                   132  6.7    0.002    0.002    0.597    0.713
 diagonalize_C                        1  8.0    0.000    0.000    0.646    0.647
 pw_zero                            488 10.3    0.566    0.596    0.566    0.596
 pw_poisson_rebuild                  82  9.0    0.000    0.000    0.532    0.548
 ps_wavelet_create                    1 10.0    0.000    0.000    0.532    0.548
 RS_z_slice_distribution              1 11.0    0.459    0.494    0.532    0.548
 dbcsr_complete_redistribute        298  8.5    0.009    0.011    0.520    0.525
 dbcsr_multiply_generic             166  8.1    0.004    0.004    0.350    0.521
 calculate_dm_sparse                 81  6.0    0.000    0.000    0.350    0.520
 cp_dbcsr_plus_fm_fm_t               81  7.0    0.001    0.001    0.349    0.519
 mp_sum_dm                         4268  7.7    0.339    0.476    0.339    0.476
 multiply_cannon                    166  9.1    0.007    0.007    0.279    0.456
 mp_alltoall_i11v                  1028  9.4    0.245    0.455    0.245    0.455
 integrate_four_center_main          82 10.0    0.014    0.018    0.425    0.436
 integrate_four_center_bin         5307 11.0    0.411    0.423    0.411    0.423
 powell_optimize                 274449 11.0    0.395    0.411    0.395    0.411
 multiply_cannon_loop               166 10.1    0.003    0.003    0.223    0.395
 qs_init_subsys                       1  2.0    0.001    0.001    0.388    0.388
 qs_env_setup                         1  3.0    0.000    0.000    0.386    0.386
 qs_env_rebuild_pw_env                2  3.5    0.000    0.000    0.386    0.386
 pw_env_rebuild                       1  5.0    0.000    0.000    0.386    0.386
 pw_grid_setup                        4  6.0    0.000    0.000    0.378    0.378
 pw_grid_setup_internal               4  7.0    0.005    0.006    0.378    0.378
 mp_isend_dv                       9790 11.7    0.214    0.369    0.214    0.369
 self_consistency_check              81  5.0    0.000    0.000    0.177    0.363
 cp_sm_mix                           81  6.0    0.000    0.000    0.177    0.363
 mp_max_d                            83  6.9    0.176    0.362    0.176    0.362
 mp_max_i                           608  3.0    0.184    0.360    0.184    0.360
 eigensolver_symm                    82  6.0    0.006    0.006    0.351    0.354
 calculate_vxc_atom                  82  8.0    0.044    0.076    0.339    0.339
 fft_wrap_pw1pw2_30                 164 10.5    0.012    0.013    0.248    0.326
 calc_screening_functions             1 10.0    0.078    0.082    0.307    0.319
 transfer_rs2pw_10                   82  9.0    0.061    0.069    0.263    0.319
 pw_grid_sort                         4  8.0    0.220    0.227    0.307    0.317
 multiply_cannon_metrocomm3         768 11.1    0.001    0.001    0.138    0.303
 Vh_1c_gg_integrals                  82  8.0    0.007    0.019    0.139    0.271
 grid_integrate_task_list            82 10.0    0.115    0.265    0.115    0.265
 mp_sum_dv                         6146  9.8    0.168    0.261    0.168    0.261
 rs_gather_matrices                  82 10.0    0.002    0.002    0.169    0.258
 pw_scale                           325  9.5    0.232    0.253    0.232    0.253
 calc_pair_dist_radii                 1 10.0    0.072    0.073    0.239    0.244
 mp_alltoall_i22                    432  9.2    0.163    0.244    0.163    0.244
 dbcsr_desymmetrize_deep            134  7.7    0.003    0.003    0.240    0.243
 rpa_num_int_RPA_matrix_operati     100  7.0    0.000    0.001    0.238    0.238
 scale_and_distribute               164 10.0    0.195    0.236    0.195    0.236
 gaVxcgb_GC                         162  9.0    0.052    0.207    0.052    0.207
 mp2_ri_gpw_compute_in                1  5.0    0.000    0.000    0.206    0.206
 transfer_pw2rs_10                   82 12.0    0.083    0.088    0.195    0.206
 hybrid_alltoall_any                466 11.1    0.003    0.003    0.071    0.196
 calc_mat_Q                         100  8.0    0.000    0.000    0.182    0.185
 contract_S_to_Q                    100  9.0    0.000    0.000    0.181    0.183
 create_qs_kind_set                   1  2.0    0.000    0.000    0.181    0.182
 read_qs_kind                         4  3.0    0.044    0.132    0.181    0.182
 arnoldi_conjugate_gradient           5  6.0    0.004    0.005    0.181    0.181
 multiply_cannon_metrocomm1         768 11.1    0.000    0.001    0.053    0.179
 mp2_main_alloc_hfx                   1  4.0    0.127    0.171    0.127    0.171
 mp2_ri_gpw_compute_in_loop           1  6.0    0.000    0.000    0.158    0.158
 cp_fm_to_fm_submat_general         112 10.1    0.079    0.151    0.079    0.151
 multiply_cannon_metrocomm4         602 11.1    0.001    0.001    0.019    0.151
 parser_read_line                 18161  4.0    0.003    0.003    0.137    0.142
 parser_read_line_low                30  5.0    0.002    0.018    0.135    0.139
 broadcast_input_information         30  6.0    0.005    0.005    0.133    0.138
 mp_bcast_i_src                     120  7.0    0.113    0.120    0.113    0.120
 cp_fm_uplo_to_full                 191  8.4    0.068    0.115    0.068    0.115
 contract_B_L                         4  7.0    0.001    0.001    0.106    0.113
 dbcsr_sym_matrix_vector_mult      1365  7.0    0.010    0.010    0.103    0.108
 cp_fm_norm                           2  6.0    0.004    0.107    0.004    0.107
 calculate_rho_atom                 328  9.0    0.073    0.100    0.073    0.100
 mp_bcast_b_src                     169  7.5    0.041    0.098    0.041    0.098
 xc_pw_smooth                        81 10.0    0.000    0.000    0.083    0.093
 sort_shells                          4  9.0    0.088    0.091    0.088    0.091
 cp_fm_cholesky_invert              101  8.0    0.082    0.089    0.082    0.089
 dbt_total                            8  8.0    0.000    0.000    0.086    0.086
 cp_fm_cholesky_decompose           102  9.0    0.072    0.085    0.072    0.085
 mp_sum_i                            19  9.5    0.043    0.085    0.043    0.085
 restraint_control                    1  2.0    0.000    0.000    0.043    0.085
 dbt_contract                         4  9.0    0.000    0.000    0.080    0.080
 make_m2s                           332  9.1    0.002    0.002    0.049    0.080
 calculate_rho_atom_coeff            82  6.0    0.016    0.018    0.078    0.079
 fm_general_add_bse                   5 10.2    0.000    0.000    0.072    0.076
 write_mo_set_to_restart             81  5.0    0.003    0.071    0.066    0.076
 dbcsr_add_d                       2114  7.1    0.001    0.001    0.020    0.074
 dbcsr_add_anytype                 2114  8.1    0.002    0.009    0.019    0.073
 fft_wrap_pw1pw2_10                 164 10.5    0.003    0.003    0.062    0.070
 mixing_init                          1  5.0    0.063    0.067    0.067    0.067
 scf_post_calculation_gpw             1  3.0    0.000    0.000    0.065    0.065
 write_available_results              1  4.0    0.000    0.000    0.065    0.065
 write_mo_free_results                1  5.0    0.009    0.010    0.065    0.065
 write_mo_set_low                     5  6.0    0.000    0.000    0.063    0.065
 cp_fm_write_unformatted              5  7.0    0.063    0.064    0.063    0.065
 create_B                             1  8.0    0.000    0.000    0.060    0.064
 qs_env_update_s_mstruct              1  4.0    0.000    0.000    0.038    0.061
 qs_create_task_list                  1  5.0    0.000    0.000    0.038    0.061
 generate_qs_task_list                1  6.0    0.000    0.000    0.038    0.061
 distribute_tasks                     1  7.0    0.000    0.000    0.038    0.061
 make_images                        332 10.1    0.005    0.005    0.030    0.061
 mp_isendrecv_dv                  10168 12.0    0.023    0.060    0.023    0.060
 create_local_tasks                   1  8.0    0.000    0.000    0.037    0.060
 mp_alltoall_l11v                     1  9.0    0.037    0.060    0.037    0.060
 create_A                             1  8.0    0.001    0.001    0.057    0.059
 calculate_ecore_overlap              1  4.0    0.000    0.000    0.023    0.058
 mp_cart_create                     606  9.9    0.038    0.055    0.039    0.056
 dbcsr_finalize                    3456 10.3    0.005    0.014    0.026    0.055
 compute_Erpa_by_freq_int           100  8.0    0.000    0.000    0.050    0.051
 mp_allgather_i34                   166 10.1    0.045    0.051    0.045    0.051
 cp_fm_syrk                           3  7.0    0.046    0.048    0.046    0.048
 get_2c_integrals                     1  6.0    0.000    0.000    0.033    0.048
 vxc_of_r_new                       324  9.0    0.002    0.007    0.013    0.047
 mp_isend_dm3                      2964 11.5    0.038    0.046    0.038    0.046
 mp_sum_l                          1134  6.5    0.031    0.043    0.031    0.043
 make_images_data                   332 11.1    0.002    0.002    0.011    0.042
 update_ks_atom                      82  8.0    0.012    0.015    0.036    0.042
 dbcsr_col_vec_to_rep_row          1365  8.0    0.005    0.005    0.037    0.041
 dbt_tas_multiply                     8 11.5    0.000    0.000    0.040    0.040
 dbt_tas_total                        8 12.5    0.000    0.000    0.040    0.040
 dbt_copy                            12 10.0    0.000    0.000    0.033    0.039
 dbt_pgrid_create_expert             84 10.8    0.000    0.000    0.021    0.037
 dbt_reshape                          8 11.5    0.001    0.002    0.028    0.035
 pw_grid_assign                       4  8.0    0.032    0.034    0.034    0.035
 cholesky_decomp                      1  7.0    0.000    0.000    0.022    0.034
 integrate_four_center_load          82 10.0    0.000    0.000    0.021    0.034
 hfx_load_balance                     1 11.0    0.000    0.000    0.021    0.033
 dbt_communicate_buffer               8 12.5    0.000    0.000    0.026    0.033
 dbt_remap                            8 10.0    0.001    0.001    0.031    0.031
 offload_free_buffer                 90  8.5    0.021    0.030    0.021    0.030
 hirshfeld_integration                1  6.0    0.001    0.004    0.029    0.029
 dbcsr_iterator_start             19008  9.0    0.016    0.022    0.019    0.029
 pw_grid_remap                        4  8.0    0.005    0.006    0.021    0.028
 mp_bcast_dm                       2788  9.0    0.024    0.028    0.024    0.028
 hfx_load_balance_range               1 12.0    0.000    0.000    0.016    0.028
 mp_bcast_dv                       1365  9.0    0.023    0.027    0.023    0.027
 copy_fm_to_dbcsr                   166  8.1    0.000    0.000    0.025    0.027
 mp_waitall_2                        50 15.8    0.015    0.027    0.015    0.027
 create_integ_mat                     4  6.0    0.000    0.000    0.026    0.026
 mp2_eri_3c_integrate                 1  7.0    0.001    0.002    0.020    0.026
 calculate_hirshfeld_normalizat       1  6.0    0.001    0.004    0.025    0.026
 integrate_set_3c                  2639  8.0    0.016    0.021    0.019    0.025
 dbcsr_merge_all                   2810 11.0    0.009    0.019    0.014    0.025
 array2fm                             4  7.0    0.000    0.000    0.022    0.025
 mp_rank_compare                   1713 12.9    0.021    0.024    0.021    0.024
 mp_sum_im3                           4  9.0    0.015    0.023    0.015    0.023
 fm_general_add_bse_1_setup           5 11.2    0.021    0.023    0.021    0.023
 postprocess_bse                      1  9.0    0.000    0.000    0.023    0.023
 invert_mat                           1  7.0    0.000    0.000    0.008    0.022
 cp_fm_triangular_invert              1  8.0    0.008    0.022    0.008    0.022
 mp2_main_free_hfx                    1  4.0    0.014    0.021    0.014    0.021
 integrate_four_center_dist_KS       82 10.0    0.003    0.004    0.019    0.021
 cp_fm_symm                          82  7.0    0.020    0.021    0.020    0.021
 dbcsr_rep_row_to_rep_col_vec      1365  8.0    0.004    0.004    0.015    0.020
 fm_general_add_bse_5_comm_buff       5 11.2    0.000    0.000    0.016    0.019
 communicate_buffer                   5 12.2    0.000    0.000    0.016    0.019
 dbt_tas_dbm                          8 13.5    0.000    0.000    0.019    0.019
 dbcsr_copy                        6154  7.6    0.011    0.011    0.018    0.019
 dbcsr_work_create                 3342 10.2    0.005    0.012    0.008    0.018
 dbt_nd_mp_comm                       8 11.0    0.000    0.000    0.007    0.018
 mp_bcast_am_src                     30  7.0    0.014    0.016    0.015    0.017
 dbcsr_create_new                  8545  9.1    0.011    0.012    0.015    0.016
 integrate_four_center_getP          82 10.0    0.003    0.003    0.014    0.016
 dbt_tas_mm_1N                        8 14.5    0.000    0.000    0.013    0.015
 dbm_multiply                         8 15.5    0.013    0.015    0.013    0.015
 -------------------------------------------------------------------------------

 The number of warnings for this run is : 1
 
 -------------------------------------------------------------------------------
  **** **** ******  **  PROGRAM ENDED AT                 2025-06-23 12:53:13.594
 ***** ** ***  *** **   PROGRAM RAN ON                     n2cn0614.ab2021.local
 **    ****   ******    PROGRAM RAN BY                                  metdyn02
 ***** **    ** ** **   PROGRAM PROCESS ID                                715535
  **** **  *******  **  PROGRAM STOPPED IN /scratch/hpc-prf-metdyn/metdyn02_Remi
                                           /10_MOL/05_MOL/aUKBqsEOTmq69kFe5R_nOg
                                           /5k_set_final_qzvp/NESFIA01/mini-SZV/
                                           GW+BSE/1e-4
