 DBCSR| CPU Multiplication driver                                           BLAS (U)
 DBCSR| Multrec recursion limit                                              512 (U)
 DBCSR| Multiplication stack size                                           1000 (D)
 DBCSR| Maximum elements for images                                    UNLIMITED (U)
 DBCSR| Multiplicative factor virtual images                                   1 (U)
 DBCSR| Use multiplication densification                                       T (D)
 DBCSR| Multiplication size stacks                                             3 (U)
 DBCSR| Use memory pool for CPU allocation                                     F (U)
 DBCSR| Number of 3D layers                                               SINGLE (U)
 DBCSR| Use MPI memory allocation                                              F (U)
 DBCSR| Use RMA algorithm                                                      F (U)
 DBCSR| Use Communication thread                                               T (U)
 DBCSR| Communication thread load                                             75 (D)
 DBCSR| MPI: My process id                                                     0
 DBCSR| MPI: Number of processes                                              48
 DBCSR| OMP: Current number of threads                                         4
 DBCSR| OMP: Max number of threads                                             4
 DBCSR| Split modifier for TAS multiplication algorithm                  1.0E+00 (U)


  **** **** ******  **  PROGRAM STARTED AT               2025-03-19 00:26:29.853
 ***** ** ***  *** **   PROGRAM STARTED ON                          i01r02c03s09
 **    ****   ******    PROGRAM STARTED BY                               di38fab
 ***** **    ** ** **   PROGRAM PROCESS ID                                793109
  **** **  *******  **  PROGRAM STARTED IN /hppfs/scratch/04/di38fab/05_MOL/W4-1
                                           1+ALK/lif/aug-cc-pVDZ/GW+BSE

 CP2K| version string:                 CP2K version 2025.1 (Development Version)
 CP2K| source code revision number:                                  git:d2e611a
 CP2K| cp2kflags: omp libint fftw3 libxc parallel scalapack max_contr=4         
 CP2K| is freely available from                            https://www.cp2k.org/
 CP2K| Program compiled at                       Thu 06 Mar 2025 05:09:20 PM CET
 CP2K| Program compiled on                                               login02
 CP2K| Program compiled for                                        Supermuc-foss
 CP2K| Data directory path                  /hppfs/work/pn36zo/di38fab/cp2k/data
 CP2K| Input file name                                                    GW.inp

 GLOBAL| Force Environment number                                              1
 GLOBAL| Basis set file name            /hppfs/scratch/04/di38fab/04_TMD/BASIS_A
 GLOBAL| Potential file name            /hppfs/work/pn36zo/di38fab/cp2k/data/ALL
 GLOBAL| MM Potential file name                                     MM_POTENTIAL
 GLOBAL| Coordinate file name                                      __STD_INPUT__
 GLOBAL| Method name                                                        CP2K
 GLOBAL| Project name                                                       MoS2
 GLOBAL| Run type                                                         ENERGY
 GLOBAL| FFT library                                                       FFTW3
 GLOBAL| Diagonalization library                                       ScaLAPACK
 GLOBAL| DGEMM library                                                      BLAS
 GLOBAL| Orthonormality check for eigenvectors                          DISABLED
 GLOBAL| Matrix multiplication library                                 ScaLAPACK
 GLOBAL| All-to-all communication in single precision                          F
 GLOBAL| FFTs using library dependent lengths                                  F
 GLOBAL| Grid backend                                                       AUTO
 GLOBAL| Global print level                                               MEDIUM
 GLOBAL| MPI I/O enabled                                                       T
 GLOBAL| Total number of message passing processes                            48
 GLOBAL| Number of threads for this process                                    4
 GLOBAL| This output is from process                                           0
 GLOBAL| OpenMP stack size per thread (OMP_STACKSIZE)                    default
 GLOBAL| CPU model name             Intel(R) Xeon(R) Platinum 8174 CPU @ 3.10GHz

 MEMORY| system memory details [Kb]
 MEMORY|                        rank 0           min           max       average
 MEMORY| MemTotal             98436664      98436664      98436708      98436675
 MEMORY| MemFree              83965148      83826308      83977348      83906544
 MEMORY| Buffers                     0             0             0             0
 MEMORY| Cached                2385636       2385636       2402440       2394270
 MEMORY| Slab                  1224748       1215612       1231708       1225771
 MEMORY| SReclaimable           276764        274332        276764        275650
 MEMORY| MemLikelyFree        86627548      86503576      86647988      86576464


 *** Fundamental physical constants (SI units) ***

 *** Literature: B. J. Mohr and B. N. Taylor,
 ***             CODATA recommended values of the fundamental physical
 ***             constants: 2006, Web Version 5.1
 ***             http://physics.nist.gov/constants

 Speed of light in vacuum [m/s]                             2.99792458000000E+08
 Magnetic constant or permeability of vacuum [N/A**2]       1.25663706143592E-06
 Electric constant or permittivity of vacuum [F/m]          8.85418781762039E-12
 Planck constant (h) [J*s]                                  6.62606896000000E-34
 Planck constant (h-bar) [J*s]                              1.05457162825177E-34
 Elementary charge [C]                                      1.60217648700000E-19
 Electron mass [kg]                                         9.10938215000000E-31
 Electron g factor [ ]                                     -2.00231930436220E+00
 Proton mass [kg]                                           1.67262163700000E-27
 Fine-structure constant                                    7.29735253760000E-03
 Rydberg constant [1/m]                                     1.09737315685270E+07
 Avogadro constant [1/mol]                                  6.02214179000000E+23
 Boltzmann constant [J/K]                                   1.38065040000000E-23
 Atomic mass unit [kg]                                      1.66053878200000E-27
 Bohr radius [m]                                            5.29177208590000E-11

 *** Conversion factors ***

 [u] -> [a.u.]                                              1.82288848426455E+03
 [Angstrom] -> [Bohr] = [a.u.]                              1.88972613288564E+00
 [a.u.] = [Bohr] -> [Angstrom]                              5.29177208590000E-01
 [a.u.] -> [s]                                              2.41888432650478E-17
 [a.u.] -> [fs]                                             2.41888432650478E-02
 [a.u.] -> [J]                                              4.35974393937059E-18
 [a.u.] -> [N]                                              8.23872205491840E-08
 [a.u.] -> [K]                                              3.15774647902944E+05
 [a.u.] -> [kJ/mol]                                         2.62549961709828E+03
 [a.u.] -> [kcal/mol]                                       6.27509468713739E+02
 [a.u.] -> [Pa]                                             2.94210107994716E+13
 [a.u.] -> [bar]                                            2.94210107994716E+08
 [a.u.] -> [atm]                                            2.90362800883016E+08
 [a.u.] -> [eV]                                             2.72113838565563E+01
 [a.u.] -> [Hz]                                             6.57968392072181E+15
 [a.u.] -> [1/cm] (wave numbers)                            2.19474631370540E+05
 [a.u./Bohr**2] -> [1/cm]                                   5.14048714338585E+03
 

 CELL_TOP| Volume [angstrom^3]:                                     27000.000000
 CELL_TOP| Vector a [angstrom    30.000     0.000     0.000   |a| =    30.000000
 CELL_TOP| Vector b [angstrom     0.000    30.000     0.000   |b| =    30.000000
 CELL_TOP| Vector c [angstrom     0.000     0.000    30.000   |c| =    30.000000
 CELL_TOP| Angle (b,c), alpha [degree]:                                90.000000
 CELL_TOP| Angle (a,c), beta  [degree]:                                90.000000
 CELL_TOP| Angle (a,b), gamma [degree]:                                90.000000
 CELL_TOP| Numerically orthorhombic:                                         YES
 CELL_TOP| Periodicity                                                      NONE

 GENERATE|  Preliminary Number of Bonds generated:                             0
 GENERATE|  Achieved consistency in connectivity generation.

 CELL| Volume [angstrom^3]:                                         27000.000000
 CELL| Vector a [angstrom]:      30.000     0.000     0.000   |a| =    30.000000
 CELL| Vector b [angstrom]:       0.000    30.000     0.000   |b| =    30.000000
 CELL| Vector c [angstrom]:       0.000     0.000    30.000   |c| =    30.000000
 CELL| Angle (b,c), alpha [degree]:                                    90.000000
 CELL| Angle (a,c), beta  [degree]:                                    90.000000
 CELL| Angle (a,b), gamma [degree]:                                    90.000000
 CELL| Numerically orthorhombic:                                             YES
 CELL| Periodicity                                                          NONE

 CELL_REF| Volume [angstrom^3]:                                     27000.000000
 CELL_REF| Vector a [angstrom    30.000     0.000     0.000   |a| =    30.000000
 CELL_REF| Vector b [angstrom     0.000    30.000     0.000   |b| =    30.000000
 CELL_REF| Vector c [angstrom     0.000     0.000    30.000   |c| =    30.000000
 CELL_REF| Angle (b,c), alpha [degree]:                                90.000000
 CELL_REF| Angle (a,c), beta  [degree]:                                90.000000
 CELL_REF| Angle (a,b), gamma [degree]:                                90.000000
 CELL_REF| Numerically orthorhombic:                                         YES
 CELL_REF| Periodicity                                                      NONE

 *******************************************************************************
 *******************************************************************************
 **                                                                           **
 **     #####                         ##              ##                      **
 **    ##   ##            ##          ##              ##                      **
 **   ##     ##                       ##            ######                    **
 **   ##     ##  ##   ##  ##   #####  ##  ##   ####   ##    #####    #####    **
 **   ##     ##  ##   ##  ##  ##      ## ##   ##      ##   ##   ##  ##   ##   **
 **   ##  ## ##  ##   ##  ##  ##      ####     ###    ##   ######   ######    **
 **    ##  ###   ##   ##  ##  ##      ## ##      ##   ##   ##       ##        **
 **     #######   #####   ##   #####  ##  ##  ####    ##    #####   ##        **
 **           ##                                                    ##        **
 **                                                                           **
 **                                                ... make the atoms dance   **
 **                                                                           **
 **            Copyright (C) by CP2K developers group (2000-2025)             **
 **                      J. Chem. Phys. 152, 194103 (2020)                    **
 **                                                                           **
 *******************************************************************************

 DFT| Spin restricted Kohn-Sham (RKS) calculation                            RKS
 DFT| Multiplicity                                                             1
 DFT| Number of spin states                                                    1
 DFT| Charge                                                                   0
 DFT| Self-interaction correction (SIC)                                       NO
 DFT| Cutoffs: density                                              1.000000E-10
 DFT|          gradient                                             1.000000E-10
 DFT|          tau                                                  1.000000E-10
 DFT|          cutoff_smoothing_range                               0.000000E+00
 DFT| XC density smoothing                                                  NONE
 DFT| XC derivatives                                                          PW

 FUNCTIONAL| PBE:
 FUNCTIONAL| J.P.Perdew, K.Burke, M.Ernzerhof, Phys. Rev. Letter, vol. 77, n 18,
 FUNCTIONAL|  pp. 3865-3868, (1996)sx=0.750sc=1.000{spin unpolarized}           


 QS| Method:                                                                GAPW
 QS| Density plane wave grid type                        NON-SPHERICAL FULLSPACE
 QS| Number of grid levels:                                                    4
 QS| Density cutoff [a.u.]:                                                250.0
 QS| Multi grid cutoff [a.u.]: 1) grid level                               250.0
 QS|                           2) grid level                                83.3
 QS|                           3) grid level                                27.8
 QS|                           4) grid level                                 9.3
 QS| Grid level progression factor:                                          3.0
 QS| Relative density cutoff [a.u.]:                                        50.0
 QS| Interaction thresholds: eps_pgf_orb:                                1.0E-12
 QS|                         eps_filter_matrix:                          0.0E+00
 QS|                         eps_core_charge:                            1.0E-14
 QS|                         eps_rho_gspace:                             1.0E-12
 QS|                         eps_rho_rspace:                             1.0E-12
 QS|                         eps_gvg_rspace:                             1.0E-06
 QS|                         eps_ppl:                                    1.0E-02
 QS|                         eps_ppnl:                                   1.0E-08
 QS| GAPW|      One center basis from orbital basis primitives
 QS| GAPW|                   eps_fit:                                    1.0E-04
 QS| GAPW|                   eps_iso:                                    1.0E-12
 QS| GAPW|                   eps_svd:                                    1.0E-08
 QS| GAPW|                   eps_cpc:                                    1.0E-12
 QS| GAPW|   atom-r-grid: quadrature:                                     GC_LOG
 QS| GAPW|      atom-s-grid:  max l :                                          4
 QS| GAPW|      max_l_rho0 :                                                   2


 ATOMIC KIND INFORMATION

  1. Atomic kind: li                                    Number of atoms:       1

     Orbital Basis Set                                               aug-cc-pVDZ

       Number of orbital shell sets:                                           6
       Number of orbital shells:                                               9
       Number of primitive Cartesian functions:                               17
       Number of Cartesian basis functions:                                   25
       Number of spherical basis functions:                                   23
       Norm type:                                                              2

       Normalised Cartesian orbitals:

                        Set   Shell   Orbital            Exponent    Coefficient

                          1       1    1px               0.005800       0.002282
                          1       1    1py               0.005800       0.002282
                          1       1    1pz               0.005800       0.002282

                          2       1    1s                0.008600       0.020127

                          3       1    1px               1.534000       0.055444
                                                         0.274900       0.039469
                                                         0.073620       0.027351
                                                         0.024030       0.006857
                          3       1    1py               1.534000       0.055444
                                                         0.274900       0.039469
                                                         0.073620       0.027351
                                                         0.024030       0.006857
                          3       1    1pz               1.534000       0.055444
                                                         0.274900       0.039469
                                                         0.073620       0.027351
                                                         0.024030       0.006857

                          3       2    2px               1.534000       0.000000
                                                         0.274900       0.000000
                                                         0.073620       0.000000
                                                         0.024030       0.013486
                          3       2    2py               1.534000       0.000000
                                                         0.274900       0.000000
                                                         0.073620       0.000000
                                                         0.024030       0.013486
                          3       2    2pz               1.534000       0.000000
                                                         0.274900       0.000000
                                                         0.073620       0.000000
                                                         0.024030       0.013486

                          4       1    1s             1469.000000       0.129540
                                                       220.500000       0.240287
                                                        50.260000       0.399171
                                                        14.240000       0.570408
                                                         4.581000       0.631093
                                                         1.580000       0.455113
                                                         0.564000       0.127452
                                                         0.073450       0.000981
                                                         0.028050      -0.000155

                          4       2    2s             1469.000000      -0.020294
                                                       220.500000      -0.037642
                                                        50.260000      -0.063082
                                                        14.240000      -0.092379
                                                         4.581000      -0.109133
                                                         1.580000      -0.096431
                                                         0.564000      -0.063259
                                                         0.073450       0.057829
                                                         0.028050       0.025287

                          4       3    3s             1469.000000       0.000000
                                                       220.500000       0.000000
                                                        50.260000       0.000000
                                                        14.240000       0.000000
                                                         4.581000       0.000000
                                                         1.580000       0.000000
                                                         0.564000       0.000000
                                                         0.073450       0.000000
                                                         0.028050       0.048849

                          5       1    1dx2              0.073300       0.016996
                          5       1    1dxy              0.073300       0.029438
                          5       1    1dxz              0.073300       0.029438
                          5       1    1dy2              0.073300       0.016996
                          5       1    1dyz              0.073300       0.029438
                          5       1    1dz2              0.073300       0.016996

                          6       1    1dx2              0.114400       0.037039
                          6       1    1dxy              0.114400       0.064153
                          6       1    1dxz              0.114400       0.064153
                          6       1    1dy2              0.114400       0.037039
                          6       1    1dyz              0.114400       0.064153
                          6       1    1dz2              0.114400       0.037039

     RI Auxiliary Basis Set                                    aug-cc-pV5Z-RIFIT

       Number of orbital shell sets:                                          46
       Number of orbital shells:                                              46
       Number of primitive Cartesian functions:                               46
       Number of Cartesian basis functions:                                  371
       Number of spherical basis functions:                                  242
       Norm type:                                                              2

       Normalised Cartesian orbitals:

                        Set   Shell   Orbital            Exponent    Coefficient

                          1       1    1s                0.030479       0.051989

                          2       1    1px               0.045175       0.029687
                          2       1    1py               0.045175       0.029687
                          2       1    1pz               0.045175       0.029687

                          3       1    1dx2              0.048718       0.008315
                          3       1    1dxy              0.048718       0.014402
                          3       1    1dxz              0.048718       0.014402
                          3       1    1dy2              0.048718       0.008315
                          3       1    1dyz              0.048718       0.014402
                          3       1    1dz2              0.048718       0.008315

                          4       1    1s                0.064288       0.090993

                          5       1    1fx3              0.065213       0.003164
                          5       1    1fx2y             0.065213       0.007075
                          5       1    1fx2z             0.065213       0.007075
                          5       1    1fxy2             0.065213       0.007075
                          5       1    1fxyz             0.065213       0.012253
                          5       1    1fxz2             0.065213       0.007075
                          5       1    1fy3              0.065213       0.003164
                          5       1    1fy2z             0.065213       0.007075
                          5       1    1fyz2             0.065213       0.007075
                          5       1    1fz3              0.065213       0.003164

                          6       1    1px               0.072777       0.053881
                          6       1    1py               0.072777       0.053881
                          6       1    1pz               0.072777       0.053881

                          7       1    1gx4              0.099854       0.001971
                          7       1    1gx3y             0.099854       0.005215
                          7       1    1gx3z             0.099854       0.005215
                          7       1    1gx2y2            0.099854       0.006732
                          7       1    1gx2yz            0.099854       0.011661
                          7       1    1gx2z2            0.099854       0.006732
                          7       1    1gxy3             0.099854       0.005215
                          7       1    1gxy2z            0.099854       0.011661
                          7       1    1gxyz2            0.099854       0.011661
                          7       1    1gxz3             0.099854       0.005215
                          7       1    1gy4              0.099854       0.001971
                          7       1    1gy3z             0.099854       0.005215
                          7       1    1gy2z2            0.099854       0.006732
                          7       1    1gyz3             0.099854       0.005215
                          7       1    1gz4              0.099854       0.001971

                          8       1    1dx2              0.101078       0.029823
                          8       1    1dxy              0.101078       0.051656
                          8       1    1dxz              0.101078       0.051656
                          8       1    1dy2              0.101078       0.029823
                          8       1    1dyz              0.101078       0.051656
                          8       1    1dz2              0.101078       0.029823

                          9       1    1px               0.121261       0.101998
                          9       1    1py               0.121261       0.101998
                          9       1    1pz               0.121261       0.101998

                         10       1    1s                0.123532       0.148506

                         11       1    1fx3              0.156013       0.022520
                         11       1    1fx2y             0.156013       0.050356
                         11       1    1fx2z             0.156013       0.050356
                         11       1    1fxy2             0.156013       0.050356
                         11       1    1fxyz             0.156013       0.087219
                         11       1    1fxz2             0.156013       0.050356
                         11       1    1fy3              0.156013       0.022520
                         11       1    1fy2z             0.156013       0.050356
                         11       1    1fyz2             0.156013       0.050356
                         11       1    1fz3              0.156013       0.022520

                         12       1    1hx5              0.161413       0.001978
                         12       1    1hx4y             0.161413       0.005933
                         12       1    1hx4z             0.161413       0.005933
                         12       1    1hx3y2            0.161413       0.009063
                         12       1    1hx3yz            0.161413       0.015697
                         12       1    1hx3z2            0.161413       0.009063
                         12       1    1hx2y3            0.161413       0.009063
                         12       1    1hx2y2z           0.161413       0.020265
                         12       1    1hx2yz2           0.161413       0.020265
                         12       1    1hx2z3            0.161413       0.009063
                         12       1    1hxy4             0.161413       0.005933
                         12       1    1hxy3z            0.161413       0.015697
                         12       1    1hxy2z2           0.161413       0.020265
                         12       1    1hxyz3            0.161413       0.015697
                         12       1    1hxz4             0.161413       0.005933
                         12       1    1hy5              0.161413       0.001978
                         12       1    1hy4z             0.161413       0.005933
                         12       1    1hy3z2            0.161413       0.009063
                         12       1    1hy2z3            0.161413       0.009063
                         12       1    1hyz4             0.161413       0.005933
                         12       1    1hz5              0.161413       0.001978

                         13       1    1dx2              0.173452       0.076731
                         13       1    1dxy              0.173452       0.132903
                         13       1    1dxz              0.173452       0.132903
                         13       1    1dy2              0.173452       0.076731
                         13       1    1dyz              0.173452       0.132903
                         13       1    1dz2              0.173452       0.076731

                         14       1    1gx4              0.196188       0.012627
                         14       1    1gx3y             0.196188       0.033407
                         14       1    1gx3z             0.196188       0.033407
                         14       1    1gx2y2            0.196188       0.043128
                         14       1    1gx2yz            0.196188       0.074700
                         14       1    1gx2z2            0.196188       0.043128
                         14       1    1gxy3             0.196188       0.033407
                         14       1    1gxy2z            0.196188       0.074700
                         14       1    1gxyz2            0.196188       0.074700
                         14       1    1gxz3             0.196188       0.033407
                         14       1    1gy4              0.196188       0.012627
                         14       1    1gy3z             0.196188       0.033407
                         14       1    1gy2z2            0.196188       0.043128
                         14       1    1gyz3             0.196188       0.033407
                         14       1    1gz4              0.196188       0.012627

                         15       1    1px               0.223276       0.218772
                         15       1    1py               0.223276       0.218772
                         15       1    1pz               0.223276       0.218772

                         16       1    1s                0.246901       0.249633

                         17       1    1fx3              0.259280       0.070621
                         17       1    1fx2y             0.259280       0.157914
                         17       1    1fx2z             0.259280       0.157914
                         17       1    1fxy2             0.259280       0.157914
                         17       1    1fxyz             0.259280       0.273515
                         17       1    1fxz2             0.259280       0.157914
                         17       1    1fy3              0.259280       0.070621
                         17       1    1fy2z             0.259280       0.157914
                         17       1    1fyz2             0.259280       0.157914
                         17       1    1fz3              0.259280       0.070621

                         18       1    1ix6              0.339630       0.007797
                         18       1    1ix5y             0.339630       0.025861
                         18       1    1ix5z             0.339630       0.025861
                         18       1    1ix4y2            0.339630       0.044793
                         18       1    1ix4yz            0.339630       0.077583
                         18       1    1ix4z2            0.339630       0.044793
                         18       1    1ix3y3            0.339630       0.052999
                         18       1    1ix3y2z           0.339630       0.118510
                         18       1    1ix3yz2           0.339630       0.118510
                         18       1    1ix3z3            0.339630       0.052999
                         18       1    1ix2y4            0.339630       0.044793
                         18       1    1ix2y3z           0.339630       0.118510
                         18       1    1ix2y2z2          0.339630       0.152996
                         18       1    1ix2yz3           0.339630       0.118510
                         18       1    1ix2z4            0.339630       0.044793
                         18       1    1ixy5             0.339630       0.025861
                         18       1    1ixy4z            0.339630       0.077583
                         18       1    1ixy3z2           0.339630       0.118510
                         18       1    1ixy2z3           0.339630       0.118510
                         18       1    1ixyz4            0.339630       0.077583
                         18       1    1ixz5             0.339630       0.025861
                         18       1    1iy6              0.339630       0.007797
                         18       1    1iy5z             0.339630       0.025861
                         18       1    1iy4z2            0.339630       0.044793
                         18       1    1iy3z3            0.339630       0.052999
                         18       1    1iy2z4            0.339630       0.044793
                         18       1    1iyz5             0.339630       0.025861
                         18       1    1iz6              0.339630       0.007797

                         19       1    1dx2              0.339644       0.248715
                         19       1    1dxy              0.339644       0.430786
                         19       1    1dxz              0.339644       0.430786
                         19       1    1dy2              0.339644       0.248715
                         19       1    1dyz              0.339644       0.430786
                         19       1    1dz2              0.339644       0.248715

                         20       1    1s                0.380123       0.345027

                         21       1    1fx3              0.415519       0.204072
                         21       1    1fx2y             0.415519       0.456319
                         21       1    1fx2z             0.415519       0.456319
                         21       1    1fxy2             0.415519       0.456319
                         21       1    1fxyz             0.415519       0.790368
                         21       1    1fxz2             0.415519       0.456319
                         21       1    1fy3              0.415519       0.204072
                         21       1    1fy2z             0.415519       0.456319
                         21       1    1fyz2             0.415519       0.456319
                         21       1    1fz3              0.415519       0.204072

                         22       1    1hx5              0.427119       0.046733
                         22       1    1hx4y             0.427119       0.140200
                         22       1    1hx4z             0.427119       0.140200
                         22       1    1hx3y2            0.427119       0.214160
                         22       1    1hx3yz            0.427119       0.370935
                         22       1    1hx3z2            0.427119       0.214160
                         22       1    1hx2y3            0.427119       0.214160
                         22       1    1hx2y2z           0.427119       0.478876
                         22       1    1hx2yz2           0.427119       0.478876
                         22       1    1hx2z3            0.427119       0.214160
                         22       1    1hxy4             0.427119       0.140200
                         22       1    1hxy3z            0.427119       0.370935
                         22       1    1hxy2z2           0.427119       0.478876
                         22       1    1hxyz3            0.427119       0.370935
                         22       1    1hxz4             0.427119       0.140200
                         22       1    1hy5              0.427119       0.046733
                         22       1    1hy4z             0.427119       0.140200
                         22       1    1hy3z2            0.427119       0.214160
                         22       1    1hy2z3            0.427119       0.214160
                         22       1    1hyz4             0.427119       0.140200
                         22       1    1hz5              0.427119       0.046733

                         23       1    1gx4              0.434910       0.112729
                         23       1    1gx3y             0.434910       0.298252
                         23       1    1gx3z             0.434910       0.298252
                         23       1    1gx2y2            0.434910       0.385041
                         23       1    1gx2yz            0.434910       0.666911
                         23       1    1gx2z2            0.434910       0.385041
                         23       1    1gxy3             0.434910       0.298252
                         23       1    1gxy2z            0.434910       0.666911
                         23       1    1gxyz2            0.434910       0.666911
                         23       1    1gxz3             0.434910       0.298252
                         23       1    1gy4              0.434910       0.112729
                         23       1    1gy3z             0.434910       0.298252
                         23       1    1gy2z2            0.434910       0.385041
                         23       1    1gyz3             0.434910       0.298252
                         23       1    1gz4              0.434910       0.112729

                         24       1    1px               0.520190       0.629713
                         24       1    1py               0.520190       0.629713
                         24       1    1pz               0.520190       0.629713

                         25       1    1hx5              0.598672       0.140026
                         25       1    1hx4y             0.598672       0.420078
                         25       1    1hx4z             0.598672       0.420078
                         25       1    1hx3y2            0.598672       0.641679
                         25       1    1hx3yz            0.598672       1.111421
                         25       1    1hx3z2            0.598672       0.641679
                         25       1    1hx2y3            0.598672       0.641679
                         25       1    1hx2y2z           0.598672       1.434838
                         25       1    1hx2yz2           0.598672       1.434838
                         25       1    1hx2z3            0.598672       0.641679
                         25       1    1hxy4             0.598672       0.420078
                         25       1    1hxy3z            0.598672       1.111421
                         25       1    1hxy2z2           0.598672       1.434838
                         25       1    1hxyz3            0.598672       1.111421
                         25       1    1hxz4             0.598672       0.420078
                         25       1    1hy5              0.598672       0.140026
                         25       1    1hy4z             0.598672       0.420078
                         25       1    1hy3z2            0.598672       0.641679
                         25       1    1hy2z3            0.598672       0.641679
                         25       1    1hyz4             0.598672       0.420078
                         25       1    1hz5              0.598672       0.140026

                         26       1    1ix6              0.598672       0.065334
                         26       1    1ix5y             0.598672       0.216687
                         26       1    1ix5z             0.598672       0.216687
                         26       1    1ix4y2            0.598672       0.375313
                         26       1    1ix4yz            0.598672       0.650061
                         26       1    1ix4z2            0.598672       0.375313
                         26       1    1ix3y3            0.598672       0.444076
                         26       1    1ix3y2z           0.598672       0.992984
                         26       1    1ix3yz2           0.598672       0.992984
                         26       1    1ix3z3            0.598672       0.444076
                         26       1    1ix2y4            0.598672       0.375313
                         26       1    1ix2y3z           0.598672       0.992984
                         26       1    1ix2y2z2          0.598672       1.281937
                         26       1    1ix2yz3           0.598672       0.992984
                         26       1    1ix2z4            0.598672       0.375313
                         26       1    1ixy5             0.598672       0.216687
                         26       1    1ixy4z            0.598672       0.650061
                         26       1    1ixy3z2           0.598672       0.992984
                         26       1    1ixy2z3           0.598672       0.992984
                         26       1    1ixyz4            0.598672       0.650061
                         26       1    1ixz5             0.598672       0.216687
                         26       1    1iy6              0.598672       0.065334
                         26       1    1iy5z             0.598672       0.216687
                         26       1    1iy4z2            0.598672       0.375313
                         26       1    1iy3z3            0.598672       0.444076
                         26       1    1iy2z4            0.598672       0.375313
                         26       1    1iyz5             0.598672       0.216687
                         26       1    1iz6              0.598672       0.065334

                         27       1    1s                0.705917       0.548877

                         28       1    1fx3              0.764640       0.804883
                         28       1    1fx2y             0.764640       1.799773
                         28       1    1fx2z             0.764640       1.799773
                         28       1    1fxy2             0.764640       1.799773
                         28       1    1fxyz             0.764640       3.117298
                         28       1    1fxz2             0.764640       1.799773
                         28       1    1fy3              0.764640       0.804883
                         28       1    1fy2z             0.764640       1.799773
                         28       1    1fyz2             0.764640       1.799773
                         28       1    1fz3              0.764640       0.804883

                         29       1    1dx2              0.771893       1.046247
                         29       1    1dxy              0.771893       1.812154
                         29       1    1dxz              0.771893       1.812154
                         29       1    1dy2              0.771893       1.046247
                         29       1    1dyz              0.771893       1.812154
                         29       1    1dz2              0.771893       1.046247

                         30       1    1gx4              0.856517       0.726874
                         30       1    1gx3y             0.856517       1.923129
                         30       1    1gx3z             0.856517       1.923129
                         30       1    1gx2y2            0.856517       2.482749
                         30       1    1gx2yz            0.856517       4.300247
                         30       1    1gx2z2            0.856517       2.482749
                         30       1    1gxy3             0.856517       1.923129
                         30       1    1gxy2z            0.856517       4.300247
                         30       1    1gxyz2            0.856517       4.300247
                         30       1    1gxz3             0.856517       1.923129
                         30       1    1gy4              0.856517       0.726874
                         30       1    1gy3z             0.856517       1.923129
                         30       1    1gy2z2            0.856517       2.482749
                         30       1    1gyz3             0.856517       1.923129
                         30       1    1gz4              0.856517       0.726874

                         31       1    1px               1.029950       1.478973
                         31       1    1py               1.029950       1.478973
                         31       1    1pz               1.029950       1.478973

                         32       1    1hx5              1.185280       1.289028
                         32       1    1hx4y             1.185280       3.867083
                         32       1    1hx4z             1.185280       3.867083
                         32       1    1hx3y2            1.185280       5.907067
                         32       1    1hx3yz            1.185280      10.231341
                         32       1    1hx3z2            1.185280       5.907067
                         32       1    1hx2y3            1.185280       5.907067
                         32       1    1hx2y2z           1.185280      13.208604
                         32       1    1hx2yz2           1.185280      13.208604
                         32       1    1hx2z3            1.185280       5.907067
                         32       1    1hxy4             1.185280       3.867083
                         32       1    1hxy3z            1.185280      10.231341
                         32       1    1hxy2z2           1.185280      13.208604
                         32       1    1hxyz3            1.185280      10.231341
                         32       1    1hxz4             1.185280       3.867083
                         32       1    1hy5              1.185280       1.289028
                         32       1    1hy4z             1.185280       3.867083
                         32       1    1hy3z2            1.185280       5.907067
                         32       1    1hy2z3            1.185280       5.907067
                         32       1    1hyz4             1.185280       3.867083
                         32       1    1hz5              1.185280       1.289028

                         33       1    1fx3              1.349290       2.888626
                         33       1    1fx2y             1.349290       6.459165
                         33       1    1fx2z             1.349290       6.459165
                         33       1    1fxy2             1.349290       6.459165
                         33       1    1fxyz             1.349290      11.187602
                         33       1    1fxz2             1.349290       6.459165
                         33       1    1fy3              1.349290       2.888626
                         33       1    1fy2z             1.349290       6.459165
                         33       1    1fyz2             1.349290       6.459165
                         33       1    1fz3              1.349290       2.888626

                         34       1    1dx2              1.351630       2.788757
                         34       1    1dxy              1.351630       4.830269
                         34       1    1dxz              1.351630       4.830269
                         34       1    1dy2              1.351630       2.788757
                         34       1    1dyz              1.351630       4.830269
                         34       1    1dz2              1.351630       2.788757

                         35       1    1s                1.423940       0.929028

                         36       1    1gx4              1.819640       5.772919
                         36       1    1gx3y             1.819640      15.273709
                         36       1    1gx3z             1.819640      15.273709
                         36       1    1gx2y2            1.819640      19.718273
                         36       1    1gx2yz            1.819640      34.153051
                         36       1    1gx2z2            1.819640      19.718273
                         36       1    1gxy3             1.819640      15.273709
                         36       1    1gxy2z            1.819640      34.153051
                         36       1    1gxyz2            1.819640      34.153051
                         36       1    1gxz3             1.819640      15.273709
                         36       1    1gy4              1.819640       5.772919
                         36       1    1gy3z             1.819640      15.273709
                         36       1    1gy2z2            1.819640      19.718273
                         36       1    1gyz3             1.819640      15.273709
                         36       1    1gz4              1.819640       5.772919

                         37       1    1px               2.347260       4.141347
                         37       1    1py               2.347260       4.141347
                         37       1    1pz               2.347260       4.141347

                         38       1    1dx2              2.681530       9.248666
                         38       1    1dxy              2.681530      16.019160
                         38       1    1dxz              2.681530      16.019160
                         38       1    1dy2              2.681530       9.248666
                         38       1    1dyz              2.681530      16.019160
                         38       1    1dz2              2.681530       9.248666

                         39       1    1s                2.891360       1.580290

                         40       1    1fx3              3.229490      20.582865
                         40       1    1fx2y             3.229490      46.024685
                         40       1    1fx2z             3.229490      46.024685
                         40       1    1fxy2             3.229490      46.024685
                         40       1    1fxyz             3.229490      79.717093
                         40       1    1fxz2             3.229490      46.024685
                         40       1    1fy3              3.229490      20.582865
                         40       1    1fy2z             3.229490      46.024685
                         40       1    1fyz2             3.229490      46.024685
                         40       1    1fz3              3.229490      20.582865

                         41       1    1px               6.081490      13.612960
                         41       1    1py               6.081490      13.612960
                         41       1    1pz               6.081490      13.612960

                         42       1    1dx2              6.963580      49.132227
                         42       1    1dxy              6.963580      85.099514
                         42       1    1dxz              6.963580      85.099514
                         42       1    1dy2              6.963580      49.132227
                         42       1    1dyz              6.963580      85.099514
                         42       1    1dz2              6.963580      49.132227

                         43       1    1s                7.795370       3.324969

                         44       1    1px              20.093900      60.641563
                         44       1    1py              20.093900      60.641563
                         44       1    1pz              20.093900      60.641563

                         45       1    1s               24.228600       7.783167

                         46       1    1s              115.553000      25.118634

       Atomic covalent radius [Angstrom]:                                  1.230

       Atomic van der Waals radius [Angstrom]:                             1.820

     The atoms of this atomic kind are PAW atoms (GAPW):
       Hard Gaussian function radius:                                      1.512
       Rho0 radius:                                                        1.512
       Maximum GTO radius used for PAW projector construction:            24.566

     GAPW Soft Basis Set                                        aug-cc-pVDZ_soft

       Number of orbital shell sets:                                           6
       Number of orbital shells:                                               9
       Number of primitive Cartesian functions:                               12
       Number of Cartesian basis functions:                                   25
       Number of spherical basis functions:                                   23
       Norm type:                                                              2

       Normalised Cartesian orbitals:

                        Set   Shell   Orbital            Exponent    Coefficient

                          1       1    1px               0.005800       0.002282
                          1       1    1py               0.005800       0.002282
                          1       1    1pz               0.005800       0.002282

                          2       1    1s                0.008600       0.020127

                          3       1    1px               1.534000       0.055444
                                                         0.274900       0.039469
                                                         0.073620       0.027351
                                                         0.024030       0.006857
                          3       1    1py               1.534000       0.055444
                                                         0.274900       0.039469
                                                         0.073620       0.027351
                                                         0.024030       0.006857
                          3       1    1pz               1.534000       0.055444
                                                         0.274900       0.039469
                                                         0.073620       0.027351
                                                         0.024030       0.006857

                          3       2    2px               1.534000       0.000000
                                                         0.274900       0.000000
                                                         0.073620       0.000000
                                                         0.024030       0.013486
                          3       2    2py               1.534000       0.000000
                                                         0.274900       0.000000
                                                         0.073620       0.000000
                                                         0.024030       0.013486
                          3       2    2pz               1.534000       0.000000
                                                         0.274900       0.000000
                                                         0.073620       0.000000
                                                         0.024030       0.013486

                          4       1    1s                1.580000       0.455113
                                                         0.564000       0.127452
                                                         0.073450       0.000981
                                                         0.028050      -0.000155

                          4       2    2s                1.580000      -0.096431
                                                         0.564000      -0.063259
                                                         0.073450       0.057829
                                                         0.028050       0.025287

                          4       3    3s                1.580000       0.000000
                                                         0.564000       0.000000
                                                         0.073450       0.000000
                                                         0.028050       0.048849

                          5       1    1dx2              0.073300       0.016996
                          5       1    1dxy              0.073300       0.029438
                          5       1    1dxz              0.073300       0.029438
                          5       1    1dy2              0.073300       0.016996
                          5       1    1dyz              0.073300       0.029438
                          5       1    1dz2              0.073300       0.016996

                          6       1    1dx2              0.114400       0.037039
                          6       1    1dxy              0.114400       0.064153
                          6       1    1dxz              0.114400       0.064153
                          6       1    1dy2              0.114400       0.037039
                          6       1    1dyz              0.114400       0.064153
                          6       1    1dz2              0.114400       0.037039

     AE Potential information for                                            ALL

       Description:                                       All-electron potential
                                          Krack, Parrinello, PCCP 2, 2105 (2000)

       Gaussian exponent of the core charge distribution:               3.125000
       Electronic configuration (s p d ...):                           3   0   0

  2. Atomic kind: f                                     Number of atoms:       1

     Orbital Basis Set                                               aug-cc-pVDZ

       Number of orbital shell sets:                                           6
       Number of orbital shells:                                               9
       Number of primitive Cartesian functions:                               17
       Number of Cartesian basis functions:                                   25
       Number of spherical basis functions:                                   23
       Norm type:                                                              2

       Normalised Cartesian orbitals:

                        Set   Shell   Orbital            Exponent    Coefficient

                          1       1    1px               0.085020       0.065440
                          1       1    1py               0.085020       0.065440
                          1       1    1pz               0.085020       0.065440

                          2       1    1s                0.098630       0.125434

                          3       1    1px              22.670000       3.164375
                                                         4.977000       2.497712
                                                         1.347000       1.051861
                                                         0.347100       0.173975
                          3       1    1py              22.670000       3.164375
                                                         4.977000       2.497712
                                                         1.347000       1.051861
                                                         0.347100       0.173975
                          3       1    1pz              22.670000       3.164375
                                                         4.977000       2.497712
                                                         1.347000       1.051861
                                                         0.347100       0.173975

                          3       2    2px              22.670000       0.000000
                                                         4.977000       0.000000
                                                         1.347000       0.000000
                                                         0.347100       0.379759
                          3       2    2py              22.670000       0.000000
                                                         4.977000       0.000000
                                                         1.347000       0.000000
                                                         0.347100       0.379759
                          3       2    2pz              22.670000       0.000000
                                                         4.977000       0.000000
                                                         1.347000       0.000000
                                                         0.347100       0.379759

                          4       1    1s            14710.000000       0.686365
                                                      2207.000000       1.274353
                                                       502.800000       2.139126
                                                       142.600000       3.130553
                                                        46.470000       3.638230
                                                        16.700000       2.641476
                                                         6.356000       0.755357
                                                         1.316000       0.013427
                                                         0.389700      -0.000820

                          4       2    2s            14710.000000      -0.157074
                                                      2207.000000      -0.300172
                                                       502.800000      -0.491514
                                                       142.600000      -0.784991
                                                        46.470000      -0.934756
                                                        16.700000      -1.005483
                                                         6.356000      -0.320466
                                                         1.316000       0.492853
                                                         0.389700       0.199941

                          4       3    3s            14710.000000       0.000000
                                                      2207.000000       0.000000
                                                       502.800000       0.000000
                                                       142.600000       0.000000
                                                        46.470000       0.000000
                                                        16.700000       0.000000
                                                         6.356000       0.000000
                                                         1.316000       0.000000
                                                         0.389700       0.351526

                          5       1    1dx2              0.464000       0.429354
                          5       1    1dxy              0.464000       0.743664
                          5       1    1dxz              0.464000       0.743664
                          5       1    1dy2              0.464000       0.429354
                          5       1    1dyz              0.464000       0.743664
                          5       1    1dz2              0.464000       0.429354

                          6       1    1dx2              1.640000       3.911886
                          6       1    1dxy              1.640000       6.775585
                          6       1    1dxz              1.640000       6.775585
                          6       1    1dy2              1.640000       3.911886
                          6       1    1dyz              1.640000       6.775585
                          6       1    1dz2              1.640000       3.911886

     RI Auxiliary Basis Set                                    aug-cc-pVDZ-OPTRI

       Number of orbital shell sets:                                          17
       Number of orbital shells:                                              17
       Number of primitive Cartesian functions:                               17
       Number of Cartesian basis functions:                                   88
       Number of spherical basis functions:                                   69
       Norm type:                                                              2

       Normalised Cartesian orbitals:

                        Set   Shell   Orbital            Exponent    Coefficient

                          1       1    1px               0.126928       0.107991
                          1       1    1py               0.126928       0.107991
                          1       1    1pz               0.126928       0.107991

                          2       1    1s                0.146513       0.168779

                          3       1    1px               0.514046       0.620430
                          3       1    1py               0.514046       0.620430
                          3       1    1pz               0.514046       0.620430

                          4       1    1fx3              0.639079       0.537591
                          4       1    1fx2y             0.639079       1.202091
                          4       1    1fx2z             0.639079       1.202091
                          4       1    1fxy2             0.639079       1.202091
                          4       1    1fxyz             0.639079       2.082082
                          4       1    1fxz2             0.639079       1.202091
                          4       1    1fy3              0.639079       0.537591
                          4       1    1fy2z             0.639079       1.202091
                          4       1    1fyz2             0.639079       1.202091
                          4       1    1fz3              0.639079       0.537591

                          5       1    1px               1.085258       1.578906
                          5       1    1py               1.085258       1.578906
                          5       1    1pz               1.085258       1.578906

                          6       1    1dx2              1.095438       1.930581
                          6       1    1dxy              1.095438       3.343865
                          6       1    1dxz              1.095438       3.343865
                          6       1    1dy2              1.095438       1.930581
                          6       1    1dyz              1.095438       3.343865
                          6       1    1dz2              1.095438       1.930581

                          7       1    1s                1.236326       0.835622

                          8       1    1fx3              1.980057       6.846668
                          8       1    1fx2y             1.980057      15.309615
                          8       1    1fx2z             1.980057      15.309615
                          8       1    1fxy2             1.980057      15.309615
                          8       1    1fxyz             1.980057      26.517030
                          8       1    1fxz2             1.980057      15.309615
                          8       1    1fy3              1.980057       6.846668
                          8       1    1fy2z             1.980057      15.309615
                          8       1    1fyz2             1.980057      15.309615
                          8       1    1fz3              1.980057       6.846668

                          9       1    1gx4              2.274113      10.657824
                          9       1    1gx3y             2.274113      28.197951
                          9       1    1gx3z             2.274113      28.197951
                          9       1    1gx2y2            2.274113      36.403399
                          9       1    1gx2yz            2.274113      63.052536
                          9       1    1gx2z2            2.274113      36.403399
                          9       1    1gxy3             2.274113      28.197951
                          9       1    1gxy2z            2.274113      63.052536
                          9       1    1gxyz2            2.274113      63.052536
                          9       1    1gxz3             2.274113      28.197951
                          9       1    1gy4              2.274113      10.657824
                          9       1    1gy3z             2.274113      28.197951
                          9       1    1gy2z2            2.274113      36.403399
                          9       1    1gyz3             2.274113      28.197951
                          9       1    1gz4              2.274113      10.657824

                         10       1    1px               2.291208       4.018100
                         10       1    1py               2.291208       4.018100
                         10       1    1pz               2.291208       4.018100

                         11       1    1dx2              3.336915      13.560118
                         11       1    1dxy              3.336915      23.486813
                         11       1    1dxz              3.336915      23.486813
                         11       1    1dy2              3.336915      13.560118
                         11       1    1dyz              3.336915      23.486813
                         11       1    1dz2              3.336915      13.560118

                         12       1    1s                4.226853       2.100985

                         13       1    1px               4.837221      10.225511
                         13       1    1py               4.837221      10.225511
                         13       1    1pz               4.837221      10.225511

                         14       1    1fx3              6.162877      88.098259
                         14       1    1fx2y             6.162877     196.993695
                         14       1    1fx2z             6.162877     196.993695
                         14       1    1fxy2             6.162877     196.993695
                         14       1    1fxyz             6.162877     341.203089
                         14       1    1fxz2             6.162877     196.993695
                         14       1    1fy3              6.162877      88.098259
                         14       1    1fy2z             6.162877     196.993695
                         14       1    1fyz2             6.162877     196.993695
                         14       1    1fz3              6.162877      88.098259

                         15       1    1dx2              7.278188      53.082354
                         15       1    1dxy              7.278188      91.941335
                         15       1    1dxz              7.278188      91.941335
                         15       1    1dy2              7.278188      53.082354
                         15       1    1dyz              7.278188      91.941335
                         15       1    1dz2              7.278188      53.082354

                         16       1    1s               14.451113       5.282458

                         17       1    1dx2             15.874547     207.795818
                         17       1    1dxy             15.874547     359.912914
                         17       1    1dxz             15.874547     359.912914
                         17       1    1dy2             15.874547     207.795818
                         17       1    1dyz             15.874547     359.912914
                         17       1    1dz2             15.874547     207.795818

       Atomic covalent radius [Angstrom]:                                  0.720

       Atomic van der Waals radius [Angstrom]:                             1.470

     The atoms of this atomic kind are PAW atoms (GAPW):
       Hard Gaussian function radius:                                      1.512
       Rho0 radius:                                                        1.512
       Maximum GTO radius used for PAW projector construction:            24.566

     GAPW Soft Basis Set                                        aug-cc-pVDZ_soft

       Number of orbital shell sets:                                           6
       Number of orbital shells:                                               9
       Number of primitive Cartesian functions:                                8
       Number of Cartesian basis functions:                                   25
       Number of spherical basis functions:                                   23
       Norm type:                                                              2

       Normalised Cartesian orbitals:

                        Set   Shell   Orbital            Exponent    Coefficient

                          1       1    1px               0.085020       0.065440
                          1       1    1py               0.085020       0.065440
                          1       1    1pz               0.085020       0.065440

                          2       1    1s                0.098630       0.125434

                          3       1    1px               1.347000       1.051861
                                                         0.347100       0.173975
                          3       1    1py               1.347000       1.051861
                                                         0.347100       0.173975
                          3       1    1pz               1.347000       1.051861
                                                         0.347100       0.173975

                          3       2    2px               1.347000       0.000000
                                                         0.347100       0.379759
                          3       2    2py               1.347000       0.000000
                                                         0.347100       0.379759
                          3       2    2pz               1.347000       0.000000
                                                         0.347100       0.379759

                          4       1    1s                1.316000       0.013427
                                                         0.389700      -0.000820

                          4       2    2s                1.316000       0.492853
                                                         0.389700       0.199941

                          4       3    3s                1.316000       0.000000
                                                         0.389700       0.351526

                          5       1    1dx2              0.464000       0.429354
                          5       1    1dxy              0.464000       0.743664
                          5       1    1dxz              0.464000       0.743664
                          5       1    1dy2              0.464000       0.429354
                          5       1    1dyz              0.464000       0.743664
                          5       1    1dz2              0.464000       0.429354

                          6       1    1dx2              1.640000       3.911886
                          6       1    1dxy              1.640000       6.775585
                          6       1    1dxz              1.640000       6.775585
                          6       1    1dy2              1.640000       3.911886
                          6       1    1dyz              1.640000       6.775585
                          6       1    1dz2              1.640000       3.911886

     AE Potential information for                                            ALL

       Description:                                       All-electron potential
                                          Krack, Parrinello, PCCP 2, 2105 (2000)

       Gaussian exponent of the core charge distribution:              10.470541
       Electronic configuration (s p d ...):                           4   5   0


 MOLECULE KIND INFORMATION


 All atoms are their own molecule, skipping detailed information


 TOTAL NUMBERS AND MAXIMUM NUMBERS

  Total number of            - Atomic kinds:                                   2
                             - Atoms:                                          2
                             - Shell sets:                                    12
                             - Shells:                                        18
                             - Primitive Cartesian functions:                 34
                             - Cartesian basis functions:                     50
                             - Spherical basis functions:                     46

  Maximum angular momentum of the orbital basis functions:                     2


 MODULE QUICKSTEP: ATOMIC COORDINATES IN ANGSTROM

   Atom Kind Element         X             Y             Z       Z(eff)     Mass
      1    1 li    3     15.000000     15.000000     15.782465   3.0000   6.9410
      2    2 f     9     15.000000     15.000000     14.217535   9.0000  18.9984



 SCF PARAMETERS         Density guess:                                    ATOMIC
                        --------------------------------------------------------
                        max_scf:                                             500
                        max_scf_history:                                       0
                        max_diis:                                              4
                        --------------------------------------------------------
                        eps_scf:                                        1.00E-06
                        eps_scf_history:                                0.00E+00
                        eps_diis:                                       1.00E-01
                        eps_eigval:                                     1.00E-05
                        --------------------------------------------------------
                        level_shift [a.u.]:                             0.000000
                        added MOs                                        40    0
                        --------------------------------------------------------
                        Mixing method:                            BROYDEN_MIXING
                                                charge density mixing in g-space
                        --------------------------------------------------------
                        Smear method:                                FERMI_DIRAC
                        Electronic temperature [K]:                        300.0
                        Electronic temperature [a.u.]:                  9.50E-04
                        Accuracy threshold:                             1.00E-10
                        --------------------------------------------------------
                        No outer SCF

 PW_GRID| Information for grid number                                          1
 PW_GRID| Grid distributed over                                    48 processors
 PW_GRID| Real space group dimensions                                    48    1
 PW_GRID| the grid is blocked:                                                NO
 PW_GRID| Cutoff [a.u.]                                                    250.0
 PW_GRID| spherical cutoff:                                                   NO
 PW_GRID|   Bounds   1           -202     202                Points:         405
 PW_GRID|   Bounds   2           -202     202                Points:         405
[...]
 WIREs Comput Mol Sci. 4, 15-25 (2014).
 CP2K: atomistic simulations of condensed matter systems.
 https://doi.org/10.1002/wcms.1159

 U. Borstnik, J. VandeVondele, V. Weber, J. Hutter.
 Parallel Comput. 40, 47-58 (2014).
 Sparse matrix multiplication: The distributed block-compressed sparse row 
 library.
 https://doi.org/10.1016/j.parco.2014.03.012

 M. Del Ben, J. Hutter, J. VandeVondele.
 J. Chem. Theory Comput. 9, 2654-2671 (2013).
 Electron Correlation in the Condensed Phase from a Resolution of Identity 
 Approach Based on the Gaussian and Plane Waves Scheme.
 https://doi.org/10.1021/ct4002202

 M. Del Ben, J. Hutter, J. VandeVondele.
 J. Chem. Theory Comput. 8, 4177-4188 (2012).
 Second-Order Moller-Plesset Perturbation Theory in the Condensed Phase: An 
 Efficient and Massively Parallel Gaussian and Plane Waves Approach.
 https://doi.org/10.1021/ct300531w

 M. Guidon, J. Hutter, J. VandeVondele.
 J. Chem. Theory Comput. 5, 3010-3021 (2009).
 Robust Periodic Hartree-Fock Exchange for Large-Scale Simulations Using 
 Gaussian Basis Sets.
 https://doi.org/10.1021/ct900494g

 M. Guidon, F. Schiffmann, J. Hutter, J. VandeVondele.
 J. Chem. Phys. 128, 214104 (2008).
 Ab initio molecular dynamics using hybrid density functionals.
 https://doi.org/10.1063/1.2931945

 L. Genovese, T. Deutsch, S. Goedecker.
 J. Chem. Phys. 127, 054704 (2007).
 Efficient and accurate three-dimensional Poisson solver for surface problems.
 https://doi.org/10.1063/1.2754685

 J. VandeVondele, J. Hutter.
 J. Chem. Phys. 127, 114105 (2007).
 Gaussian basis sets for accurate calculations on molecular systems in gas and 
 condensed phases.
 https://doi.org/10.1063/1.2770708

 L. Genovese, T. Deutsch, A. Neelov, S. Goedecker, G. Beylkin.
 J. Chem. Phys. 125, 074105 (2006).
 Efficient solution of Poisson's equation with free boundary conditions.
 https://doi.org/10.1063/1.2335442

 M. Frigo, S. G. Johnson.
 Proc. IEEE 93, 216-231 (2005).
 The design and implementation of FFTW3.
 https://doi.org/10.1109/JPROC.2004.840301

 M. Krack, M. Parrinello.
 Phys. Chem. Chem. Phys. 2, 2105-2112 (2000).
 All-electron ab-initio molecular dynamics.
 https://doi.org/10.1039/b001167n

 G. Lippert, J. Hutter, M. Parrinello.
 Theor. Chem. Acc. 103, 124-140 (1999).
 The Gaussian and augmented-plane-wave density functional method for ab initio 
 molecular dynamics simulations.
 https://doi.org/10.1007/s002140050523

 J. P. Perdew, K. Burke, M. Ernzerhof.
 Phys. Rev. Lett. 77, 3865-3868 (1996).
 Generalized gradient approximation made simple.
 https://doi.org/10.1103/PhysRevLett.77.3865


 -------------------------------------------------------------------------------
 -                                                                             -
 -                                T I M I N G                                  -
 -                                                                             -
 -------------------------------------------------------------------------------
 SUBROUTINE                       CALLS  ASD         SELF TIME        TOTAL TIME
                                MAXIMUM       AVERAGE  MAXIMUM  AVERAGE  MAXIMUM
 CP2K                                 1  1.0    0.042    0.069  200.709  200.709
 qs_energies                          1  2.0    0.001    0.001  199.208  199.432
 scf_env_do_scf                       1  3.0    0.000    0.000  195.747  195.748
 scf_env_do_scf_inner_loop           67  4.0    0.002    0.004  195.747  195.748
 qs_ks_build_kohn_sham_matrix        68  7.0    0.010    0.011  148.412  148.428
 qs_ks_update_qs_env                 67  5.0    0.000    0.000  147.017  147.033
 rebuild_ks_matrix                   67  6.0    0.000    0.000  147.012  147.027
 fft_wrap_pw1pw2                   1419  9.9    0.032    0.041   80.797   82.114
 fft_wrap_pw1pw2_250               1011 11.1    3.484    3.879   78.181   79.269
 fft3d_ps                          1419 11.9   31.926   35.576   65.100   66.180
 pw_poisson_solve                    68  8.0    1.209    1.350   59.099   59.136
 qs_vxc_create                       68  8.0    0.001    0.001   48.535   48.535
 xc_vxc_pw_create                    67  9.0    0.838    0.941   48.534   48.534
 ps_wavelet_solve                    68  9.0   30.612   34.606   39.164   39.440
 xc_pw_derive                       402 11.0    0.004    0.005   35.251   36.220
 mp_alltoall_d54                     68 10.0    5.636   30.529    5.636   30.529
 mp_alltoall_z22v                  1419 13.9   25.498   28.581   25.498   28.581
 qs_rho_update_rho_low               68  5.0    0.001    0.001   25.226   25.226
 calculate_rho_elec                  68  6.0    0.665    0.709   25.192   25.192
 xc_pw_divergence                    67 10.0    0.002    0.003   23.940   24.909
 xc_rho_set_and_dset_create          67 10.0    0.600    0.763   23.298   24.379
 gspace_mixing                       66  5.0    0.645    0.687   23.326   23.327
 yz_to_x                            677 12.8    2.256    2.724   15.679   18.323
 x_to_yz                            742 13.1    5.397    5.818   17.471   18.103
 density_rs2pw                       68  7.0    0.004    0.005   17.727   18.019
 broyden_mixing                      66  6.0   17.331   17.580   17.574   17.678
 sum_up_and_integrate                68  8.0    0.001    0.001   14.152   14.179
 integrate_v_rspace                  68  9.0    0.002    0.002   13.955   14.043
 potential_pw2rs                     68 10.0    0.035    0.038   13.273   13.356
 prepare_gapw_den                    68  8.0    0.001    0.001   10.139   10.323
 put_rho0_on_grid                    68  9.0    0.669    0.721    9.742    9.926
 transfer_pw2rs                     341 10.6    0.005    0.007    9.692    9.839
 transfer_rs2pw                     341  8.4    0.010    0.013    8.597    8.783
 mp_waitany                        9020 11.5    7.575    8.338    7.575    8.338
 grid_collocate_task_list            68  7.0    6.545    6.903    6.545    6.903
 transfer_pw2rs_250                 137 10.9    2.020    2.185    6.360    6.615
 mp_alltoall_d11v                  1328  9.5    3.294    6.387    3.294    6.387
 transfer_rs2pw_250                 137 10.0    2.293    2.455    5.973    6.166
 xc_functional_eval                 335 10.9    0.001    0.001    5.156    6.015
 pbe_lda_eval                       335 11.9    5.155    6.013    5.155    6.013
 pw_scatter_p                       742 12.1    5.318    5.403    5.318    5.403
 mp_alltoall_d45                     69 10.0    2.706    5.394    2.706    5.394
 pw_gather_p                        677 11.8    4.457    5.111    4.457    5.111
 hfx_ks_matrix                       68  8.0    0.002    0.003    4.790    4.870
 integrate_four_center               68  9.0    1.450    3.078    4.787    4.866
 pw_derive                          606 11.3    3.898    4.187    3.898    4.187
 integrate_vhg0_rspace               68  8.0    0.022    0.029    4.139    4.162
 mp_sum_d                          1676  6.2    2.879    3.731    2.879    3.731
 mp_sync                            773  9.4    1.834    3.276    1.834    3.276
 mp2_main                             1  3.0    0.000    0.000    2.630    2.854
 cp2k_distribution_to_z_slices       68  9.0    1.261    1.331    2.453    2.645
 pw_copy                           1015 10.6    2.315    2.497    2.315    2.497
 fft_wrap_pw1pw2_90                 136 10.5    0.099    0.134    2.096    2.385
 pw_poisson_set                      69  8.9    0.002    0.003    2.163    2.200
 mp_waitall_1                     21646 12.0    0.961    1.875    0.961    1.875
 rs_grid_zero                       342 11.2    1.811    1.873    1.811    1.873
 transfer_pw2rs_90                   68 12.0    0.363    0.433    1.430    1.815
 pw_axpy                            675  9.3    1.502    1.614    1.502    1.614
 calculate_vxc_atom                  68  8.0    0.023    0.202    1.550    1.550
 transfer_pw2rs_30                   68 12.0    0.923    1.000    1.417    1.540
 pw_copy_to_array                   677 11.8    1.395    1.539    1.395    1.539
 compute_vec_Sigma_x_minus_vxc_       1  4.0    0.000    0.000    1.404    1.404
 transfer_rs2pw_90                   68  9.0    0.330    0.369    1.175    1.302
 gaVxcgb_GC                         134  9.0    0.026    1.263    0.026    1.263
 pw_integral_ab_c1d_c1d_gs           68  9.0    0.998    1.005    1.102    1.200
 pw_poisson_rebuild                  68  9.0    0.000    0.000    1.116    1.142
 ps_wavelet_create                    1 10.0    0.000    0.000    1.116    1.142
 RS_z_slice_distribution              1 11.0    0.987    1.047    1.116    1.142
 transfer_rs2pw_30                   68  9.0    0.532    0.567    1.097    1.128
 pw_copy_from_array                 742 12.1    0.893    1.115    0.893    1.115
 mp2_gpw_main                         1  4.0    0.000    0.000    1.029    1.039
 powell_optimize                 351757 11.0    0.857    0.877    0.857    0.877
 rpa_ri_compute_en                    1  5.0    0.000    0.000    0.864    0.864
 rpa_num_int                          1  6.0    0.001    0.001    0.858    0.858
 calc_screening_functions             1 10.0    0.372    0.376    0.841    0.854
 mp_sendrecv_dv                    6392 10.0    0.796    0.834    0.796    0.834
 mp_sum_dm                          480  7.6    0.459    0.828    0.459    0.828
 mp_isend_dv                       8463 11.7    0.469    0.796    0.469    0.796
 mp_irecv_dm3                      2460 11.5    0.337    0.749    0.337    0.749
 create_qs_kind_set                   1  2.0    0.000    0.000    0.710    0.711
 read_qs_kind                         2  3.0    0.385    0.395    0.710    0.711
 pw_zero                            404 10.3    0.651    0.711    0.651    0.711
 rs_gather_matrices                  68 10.0    0.001    0.006    0.580    0.687
 qs_scf_new_mos                      67  5.0    0.001    0.001    0.624    0.660
 grid_integrate_task_list            68 10.0    0.099    0.649    0.099    0.649
 init_scf_run                         1  3.0    0.000    0.000    0.638    0.639
 scf_env_initial_rho_setup            1  4.0    0.000    0.000    0.630    0.630
 calc_pair_dist_radii                 1 10.0    0.191    0.196    0.579    0.587
 compute_GW_self_energy             100  7.0    0.001    0.001    0.533    0.555
 transfer_pw2rs_10                   68 12.0    0.233    0.246    0.480    0.517
 qs_init_subsys                       1  2.0    0.005    0.007    0.460    0.460
 mp_isend_dm3                      2460 11.5    0.265    0.455    0.265    0.455
 qs_env_setup                         1  3.0    0.000    0.000    0.450    0.452
 qs_env_rebuild_pw_env                2  3.5    0.000    0.000    0.448    0.451
 pw_env_rebuild                       1  5.0    0.001    0.001    0.448    0.450
 mp_isendrecv_dv                  12784 12.0    0.219    0.440    0.219    0.440
 integrate_four_center_main          68 10.0    0.017    0.308    0.027    0.437
 Vh_1c_gg_integrals                  68  8.0    0.006    0.079    0.278    0.419
 fft_wrap_pw1pw2_30                 136 10.5    0.016    0.019    0.394    0.418
 pw_grid_setup                        4  6.0    0.000    0.000    0.416    0.418
 pw_grid_setup_internal               4  7.0    0.009    0.011    0.416    0.418
 mp_sum_i                            19  9.5    0.225    0.399    0.225    0.399
 restraint_control                    1  2.0    0.000    0.000    0.224    0.398
 mp2_main_alloc_hfx                   1  4.0    0.174    0.398    0.174    0.398
 compute_GW_self_energy_deep        100  8.0    0.094    0.115    0.367    0.390
 parallel_gemm_fm                   354  8.5    0.001    0.001    0.380    0.387
 parallel_gemm_fm_gemm              354  9.5    0.001    0.001    0.379    0.387
 cp_fm_gemm                         354 10.5    0.379    0.386    0.379    0.386
 calculate_rho_atom                 136  9.0    0.185    0.374    0.185    0.374
 cp_fm_syevd                         73  7.0    0.000    0.001    0.370    0.371
 integrate_four_center_bin         5535 11.0    0.010    0.366    0.010    0.366
 scale_and_distribute               136 10.0    0.339    0.364    0.339    0.364
 transfer_rs2pw_10                   68  9.0    0.111    0.119    0.343    0.352
 eigensolver_symm                    68  6.0    0.002    0.002    0.348    0.349
 mp_max_i                           546  2.9    0.199    0.333    0.199    0.333
 parser_read_line                 82538  4.0    0.028    0.031    0.325    0.328
 cp_fm_redistribute_end              73  8.0    0.175    0.321    0.176    0.323
 pw_grid_sort                         4  8.0    0.222    0.225    0.317    0.322
 parser_read_line_low                93  5.0    0.022    0.136    0.296    0.300
 mp_sum_dv                         3367 11.8    0.256    0.297    0.256    0.297
 cp_fm_syevd_base                    73  8.0    0.145    0.291    0.145    0.291
 broadcast_input_information         93  6.0    0.062    0.073    0.275    0.284
 pw_scale                           269  9.5    0.175    0.227    0.175    0.227
 rpa_num_int_RPA_matrix_operati     100  7.0    0.001    0.002    0.221    0.221
 calculate_dm_sparse                 67  6.0    0.000    0.001    0.161    0.164
 copy_dbcsr_to_fm                   106  6.7    0.002    0.002    0.128    0.164
 cp_dbcsr_plus_fm_fm_t               67  7.0    0.001    0.001    0.161    0.163
 cp_fm_cholesky_invert              101  8.0    0.151    0.158    0.151    0.158
 mixing_init                          1  5.0    0.145    0.149    0.148    0.149
 mp2_ri_gpw_compute_in                1  5.0    0.000    0.000    0.146    0.146
 mp2_ri_gpw_compute_in_loop           1  6.0    0.000    0.000    0.135    0.136
 mp_bcast_i_src                     372  7.0    0.115    0.135    0.115    0.135
 dbcsr_multiply_generic             128  8.1    0.005    0.005    0.130    0.133
 calc_mat_Q                         100  8.0    0.000    0.000    0.122    0.128
 contract_S_to_Q                    100  9.0    0.000    0.000    0.121    0.127
 dbcsr_desymmetrize_deep            108  7.6    0.002    0.003    0.082    0.118
 mp_bcast_am_src                     93  7.0    0.080    0.100    0.095    0.118
 scf_post_calculation_gpw             1  3.0    0.000    0.000    0.114    0.114
 write_available_results              1  4.0    0.000    0.000    0.114    0.114
 write_mo_free_results                1  5.0    0.013    0.014    0.114    0.114
 fft_wrap_pw1pw2_10                 136 10.5    0.004    0.004    0.095    0.113
 contract_B_L                         4  7.0    0.001    0.001    0.097    0.106
 dbcsr_complete_redistribute        244  8.5    0.009    0.013    0.101    0.102
 mp_alltoall_i22                    352  9.2    0.061    0.097    0.061    0.097
 xc_pw_smooth                        67 10.0    0.000    0.000    0.069    0.097
 sort_shells                          4  9.0    0.095    0.096    0.095    0.096
 compute_Erpa_by_freq_int           100  8.0    0.001    0.001    0.089    0.090
 cp_fm_cholesky_decompose           102  9.0    0.088    0.088    0.088    0.088
 qs_energies_init_hamiltonians        1  3.0    0.000    0.000    0.078    0.078
 vxc_of_r_new                       268  9.0    0.000    0.012    0.002    0.077
 start_bse_calculation                1  7.0    0.000    0.000    0.077    0.077
 build_core_hamiltonian_matrix        1  4.0    0.000    0.000    0.073    0.073
 overlap_condnum                      1  5.0    0.000    0.000    0.071    0.071
 update_ks_atom                      68  8.0    0.003    0.007    0.044    0.065
 make_m2s                           256  9.1    0.004    0.004    0.061    0.063
 mp_bcast_dm                        272  9.0    0.041    0.062    0.041    0.062
 mp_sum_l                           996  6.2    0.044    0.062    0.044    0.062
 cp_fm_to_fm_submat_general         112 10.1    0.053    0.059    0.053    0.059
 mp_cart_create                     390 10.4    0.050    0.059    0.050    0.059
 copy_fm_to_dbcsr                   138  8.1    0.001    0.001    0.056    0.059
 offload_free_buffer                 76  8.4    0.034    0.057    0.034    0.057
 dbt_total                            8  8.0    0.000    0.000    0.055    0.055
 pw_grid_assign                       4  8.0    0.050    0.052    0.051    0.053
 cp_fm_redistribute_start            73  8.0    0.038    0.040    0.048    0.052
 hirshfeld_integration                1  6.0    0.001    0.003    0.050    0.050
 dbt_contract                         4  9.0    0.001    0.001    0.050    0.050
 calculate_hirshfeld_normalizat       1  6.0    0.001    0.004    0.049    0.050
 integrate_four_center_getP          68 10.0    0.005    0.006    0.041    0.046
 arnoldi_conjugate_gradient           5  6.0    0.001    0.002    0.045    0.045
 multiply_cannon                    128  9.1    0.009    0.010    0.043    0.045
 diagonalize_C                        1  8.0    0.000    0.000    0.043    0.043
 dbt_pgrid_create_expert             84 10.8    0.000    0.000    0.034    0.043
 mp_irecv_dv                       8430 11.7    0.022    0.042    0.022    0.042
 integrate_four_center_load          68 10.0    0.000    0.001    0.025    0.042
 hfx_load_balance                     1 11.0    0.000    0.000    0.024    0.041
 integrate_four_center_dist_KS       68 10.0    0.005    0.006    0.038    0.039
 hfx_load_balance_range               1 12.0    0.000    0.000    0.021    0.038
 dbt_tas_multiply                     8 11.5    0.000    0.000    0.036    0.036
 dbt_tas_total                        8 12.5    0.001    0.002    0.036    0.036
 rs_grid_create                      74  8.8    0.000    0.001    0.004    0.036
 mp_comm_split_direct                48 14.5    0.023    0.035    0.024    0.035
 offload_create_buffer               76  9.7    0.004    0.035    0.004    0.035
 dbcsr_finalize                    1633 10.7    0.006    0.010    0.023    0.035
 calculate_rho_atom_coeff            68  6.0    0.004    0.011    0.034    0.034
 cp_fm_power                          2  7.5    0.000    0.001    0.034    0.034
 mp2_eri_3c_integrate                 1  7.0    0.000    0.001    0.011    0.032
 integrate_set_3c                   432  8.0    0.009    0.029    0.010    0.032
 make_images                        256 10.1    0.007    0.007    0.030    0.031
 mp_alltoall_i11v                   840  9.4    0.030    0.030    0.030    0.030
 mp2_main_free_hfx                    1  4.0    0.010    0.027    0.010    0.027
 dbcsr_sym_matrix_vector_mult       186  7.0    0.003    0.003    0.019    0.027
 multiply_cannon_loop               128 10.1    0.006    0.006    0.024    0.025
 init_cube_info                       4  6.0    0.022    0.023    0.022    0.023
 create_hermitian_form_of_ABBA        1  8.0    0.000    0.000    0.022    0.022
 hybrid_alltoall_any                364 11.0    0.003    0.003    0.021    0.022
 postprocess_bse                      1  9.0    0.000    0.000    0.022    0.022
 mp_maxloc_dv                      1515  1.0    0.020    0.021    0.020    0.021
 mp_bcast_iv                        111  7.0    0.015    0.021    0.015    0.021
 dbcsr_crop_matrix                  268 10.0    0.002    0.002    0.019    0.020
 -------------------------------------------------------------------------------

 The number of warnings for this run is : 1
 
 -------------------------------------------------------------------------------
  **** **** ******  **  PROGRAM ENDED AT                 2025-03-19 00:29:51.078
 ***** ** ***  *** **   PROGRAM RAN ON                              i01r02c03s09
 **    ****   ******    PROGRAM RAN BY                                   di38fab
 ***** **    ** ** **   PROGRAM PROCESS ID                                793109
  **** **  *******  **  PROGRAM STOPPED IN /hppfs/scratch/04/di38fab/05_MOL/W4-1
                                           1+ALK/lif/aug-cc-pVDZ/GW+BSE
