SIRIUS 7.5.2, git hash: https://api.github.com/repos/electronic-structure/SIRIUS/git/ref/tags/v7.5.2
 DBCSR| CPU Multiplication driver                                           XSMM (U)
 DBCSR| Multrec recursion limit                                              512 (U)
 DBCSR| Multiplication stack size                                           1000 (D)
 DBCSR| Maximum elements for images                                    UNLIMITED (U)
 DBCSR| Multiplicative factor virtual images                                   1 (U)
 DBCSR| Use multiplication densification                                       T (D)
 DBCSR| Multiplication size stacks                                             3 (U)
 DBCSR| Use memory pool for CPU allocation                                     F (U)
 DBCSR| Number of 3D layers                                               SINGLE (U)
 DBCSR| Use MPI memory allocation                                              F (U)
 DBCSR| Use RMA algorithm                                                      F (U)
 DBCSR| Use Communication thread                                               T (U)
 DBCSR| Communication thread load                                             75 (D)
 DBCSR| MPI: My process id                                                     0
 DBCSR| MPI: Number of processes                                             192
 DBCSR| OMP: Current number of threads                                         4
 DBCSR| OMP: Max number of threads                                             4
 DBCSR| Split modifier for TAS multiplication algorithm                  1.0E+00 (U)


  **** **** ******  **  PROGRAM STARTED AT               2025-03-27 12:03:48.348
 ***** ** ***  *** **   PROGRAM STARTED ON                 n2cn0552.ab2021.local
 **    ****   ******    PROGRAM STARTED BY                              metdyn02
 ***** **    ** ** **   PROGRAM PROCESS ID                               3142055
  **** **  *******  **  PROGRAM STARTED IN /scratch/hpc-prf-metdyn/metdyn02_Remi
                                           /10_MOL/05_MOL/aUKBqsEOTmq69kFe5R_nOg
                                           /5k_set_final_qzvp/EWOBUO/DZVP/TDDFT/
                                           1e-4

 CP2K| version string:                 CP2K version 2025.1 (Development Version)
 CP2K| source code revision number:                                  git:9754b87
 CP2K| cp2kflags: omp libint fftw3 libxc libgrpp elpa parallel scalapack mpi_f08
 CP2K|             cosma xsmm plumed2 spglib sirius libvori libbqb libvdwxc hdf5
 CP2K| is freely available from                            https://www.cp2k.org/
 CP2K| Program compiled at                          Sun Mar 23 00:44:01 CET 2025
 CP2K| Program compiled on                                              n2login1
 CP2K| Program compiled for                                                local
 CP2K| Data directory path    /opt/software/pc2/EB-SW/software/CP2K/2024.1-foss-
 CP2K| Input file name                                                    GW.inp

 GLOBAL| Force Environment number                                              1
 GLOBAL| Basis set file name            /scratch/hpc-prf-metdyn/metdyn02_Remi/BA
 GLOBAL| Potential file name            /pc2/groups/hpc-prf-metdyn/metdyn02_Remi
 GLOBAL| MM Potential file name                                     MM_POTENTIAL
 GLOBAL| Coordinate file name                                      __STD_INPUT__
 GLOBAL| Method name                                                        CP2K
 GLOBAL| Project name                                                       MoS2
 GLOBAL| Run type                                                         ENERGY
 GLOBAL| FFT library                                                       FFTW3
 GLOBAL| Diagonalization library                                            ELPA
 GLOBAL| DGEMM library                                                      BLAS
 GLOBAL| Minimum number of eigenvectors for ELPA usage                        16
 GLOBAL| Orthonormality check for eigenvectors                          DISABLED
 GLOBAL| Matrix multiplication library                                     COSMA
 GLOBAL| All-to-all communication in single precision                          F
 GLOBAL| FFTs using library dependent lengths                                  F
 GLOBAL| Grid backend                                                       AUTO
 GLOBAL| Global print level                                               MEDIUM
 GLOBAL| MPI I/O enabled                                                       T
 GLOBAL| Total number of message passing processes                           192
 GLOBAL| Number of threads for this process                                    4
 GLOBAL| This output is from process                                           0
 GLOBAL| OpenMP stack size per thread (OMP_STACKSIZE)                    default
 GLOBAL| CPU model name                          AMD EPYC 7763 64-Core Processor
 GLOBAL| CPUID                                                              1002

 MEMORY| system memory details [Kb]
 MEMORY|                        rank 0           min           max       average
 MEMORY| MemTotal            263899260     263899260     263899264     263899262
 MEMORY| MemFree             244675264     242123748     244675264     243428204
 MEMORY| Buffers                 87344         87344        197360        139517
 MEMORY| Cached                6105144       6087256       7610692       6722542
 MEMORY| Slab                  2067440       2058180       2687684       2235498
 MEMORY| SReclaimable           329168        309684        469524        373482
 MEMORY| MemLikelyFree       251196920     249776752     251196920     250663746


 *** Fundamental physical constants (SI units) ***

 *** Literature: B. J. Mohr and B. N. Taylor,
 ***             CODATA recommended values of the fundamental physical
 ***             constants: 2006, Web Version 5.1
 ***             http://physics.nist.gov/constants

 Speed of light in vacuum [m/s]                             2.99792458000000E+08
 Magnetic constant or permeability of vacuum [N/A**2]       1.25663706143592E-06
 Electric constant or permittivity of vacuum [F/m]          8.85418781762039E-12
 Planck constant (h) [J*s]                                  6.62606896000000E-34
 Planck constant (h-bar) [J*s]                              1.05457162825177E-34
 Elementary charge [C]                                      1.60217648700000E-19
 Electron mass [kg]                                         9.10938215000000E-31
 Electron g factor [ ]                                     -2.00231930436220E+00
 Proton mass [kg]                                           1.67262163700000E-27
 Fine-structure constant                                    7.29735253760000E-03
 Rydberg constant [1/m]                                     1.09737315685270E+07
 Avogadro constant [1/mol]                                  6.02214179000000E+23
 Boltzmann constant [J/K]                                   1.38065040000000E-23
 Atomic mass unit [kg]                                      1.66053878200000E-27
 Bohr radius [m]                                            5.29177208590000E-11

 *** Conversion factors ***

 [u] -> [a.u.]                                              1.82288848426455E+03
 [Angstrom] -> [Bohr] = [a.u.]                              1.88972613288564E+00
 [a.u.] = [Bohr] -> [Angstrom]                              5.29177208590000E-01
 [a.u.] -> [s]                                              2.41888432650478E-17
 [a.u.] -> [fs]                                             2.41888432650478E-02
 [a.u.] -> [J]                                              4.35974393937059E-18
 [a.u.] -> [N]                                              8.23872205491840E-08
 [a.u.] -> [K]                                              3.15774647902944E+05
 [a.u.] -> [kJ/mol]                                         2.62549961709828E+03
 [a.u.] -> [kcal/mol]                                       6.27509468713739E+02
 [a.u.] -> [Pa]                                             2.94210107994716E+13
 [a.u.] -> [bar]                                            2.94210107994716E+08
 [a.u.] -> [atm]                                            2.90362800883016E+08
 [a.u.] -> [eV]                                             2.72113838565563E+01
 [a.u.] -> [Hz]                                             6.57968392072181E+15
 [a.u.] -> [1/cm] (wave numbers)                            2.19474631370540E+05
 [a.u./Bohr**2] -> [1/cm]                                   5.14048714338585E+03
 

 CELL_TOP| Volume [angstrom^3]:                                     27000.000000
 CELL_TOP| Vector a [angstrom    30.000     0.000     0.000   |a| =    30.000000
 CELL_TOP| Vector b [angstrom     0.000    30.000     0.000   |b| =    30.000000
 CELL_TOP| Vector c [angstrom     0.000     0.000    30.000   |c| =    30.000000
 CELL_TOP| Angle (b,c), alpha [degree]:                                90.000000
 CELL_TOP| Angle (a,c), beta  [degree]:                                90.000000
 CELL_TOP| Angle (a,b), gamma [degree]:                                90.000000
 CELL_TOP| Numerically orthorhombic:                                         YES
 CELL_TOP| Periodicity                                                      NONE

 GENERATE|  Preliminary Number of Bonds generated:                             0
 GENERATE|  Achieved consistency in connectivity generation.

 CELL| Volume [angstrom^3]:                                         27000.000000
 CELL| Vector a [angstrom]:      30.000     0.000     0.000   |a| =    30.000000
 CELL| Vector b [angstrom]:       0.000    30.000     0.000   |b| =    30.000000
 CELL| Vector c [angstrom]:       0.000     0.000    30.000   |c| =    30.000000
 CELL| Angle (b,c), alpha [degree]:                                    90.000000
 CELL| Angle (a,c), beta  [degree]:                                    90.000000
 CELL| Angle (a,b), gamma [degree]:                                    90.000000
 CELL| Numerically orthorhombic:                                             YES
 CELL| Periodicity                                                          NONE

 CELL_REF| Volume [angstrom^3]:                                     27000.000000
 CELL_REF| Vector a [angstrom    30.000     0.000     0.000   |a| =    30.000000
 CELL_REF| Vector b [angstrom     0.000    30.000     0.000   |b| =    30.000000
 CELL_REF| Vector c [angstrom     0.000     0.000    30.000   |c| =    30.000000
 CELL_REF| Angle (b,c), alpha [degree]:                                90.000000
 CELL_REF| Angle (a,c), beta  [degree]:                                90.000000
 CELL_REF| Angle (a,b), gamma [degree]:                                90.000000
 CELL_REF| Numerically orthorhombic:                                         YES
 CELL_REF| Periodicity                                                      NONE

 *******************************************************************************
 *******************************************************************************
 **                                                                           **
 **     #####                         ##              ##                      **
 **    ##   ##            ##          ##              ##                      **
 **   ##     ##                       ##            ######                    **
 **   ##     ##  ##   ##  ##   #####  ##  ##   ####   ##    #####    #####    **
 **   ##     ##  ##   ##  ##  ##      ## ##   ##      ##   ##   ##  ##   ##   **
 **   ##  ## ##  ##   ##  ##  ##      ####     ###    ##   ######   ######    **
 **    ##  ###   ##   ##  ##  ##      ## ##      ##   ##   ##       ##        **
 **     #######   #####   ##   #####  ##  ##  ####    ##    #####   ##        **
 **           ##                                                    ##        **
 **                                                                           **
 **                                                ... make the atoms dance   **
 **                                                                           **
 **            Copyright (C) by CP2K developers group (2000-2025)             **
 **                      J. Chem. Phys. 152, 194103 (2020)                    **
 **                                                                           **
 *******************************************************************************

 DFT| Spin restricted Kohn-Sham (RKS) calculation                            RKS
 DFT| Multiplicity                                                             1
 DFT| Number of spin states                                                    1
 DFT| Charge                                                                   0
 DFT| Self-interaction correction (SIC)                                       NO
 DFT| Cutoffs: density                                              1.000000E-10
 DFT|          gradient                                             1.000000E-10
 DFT|          tau                                                  1.000000E-10
 DFT|          cutoff_smoothing_range                               0.000000E+00
 DFT| XC density smoothing                                                  NONE
 DFT| XC derivatives                                                          PW

 FUNCTIONAL| PBE:
 FUNCTIONAL| J.P.Perdew, K.Burke, M.Ernzerhof, Phys. Rev. Letter, vol. 77, n 18,
 FUNCTIONAL|  pp. 3865-3868, (1996)sx=0.750sc=1.000{spin unpolarized}           


 QS| Method:                                                                GAPW
 QS| Density plane wave grid type                        NON-SPHERICAL FULLSPACE
 QS| Number of grid levels:                                                    4
 QS| Density cutoff [a.u.]:                                                250.0
 QS| Multi grid cutoff [a.u.]: 1) grid level                               250.0
 QS|                           2) grid level                                83.3
 QS|                           3) grid level                                27.8
 QS|                           4) grid level                                 9.3
 QS| Grid level progression factor:                                          3.0
 QS| Relative density cutoff [a.u.]:                                        50.0
 QS| Interaction thresholds: eps_pgf_orb:                                1.0E-12
 QS|                         eps_filter_matrix:                          0.0E+00
 QS|                         eps_core_charge:                            1.0E-14
 QS|                         eps_rho_gspace:                             1.0E-12
 QS|                         eps_rho_rspace:                             1.0E-12
 QS|                         eps_gvg_rspace:                             1.0E-06
 QS|                         eps_ppl:                                    1.0E-02
 QS|                         eps_ppnl:                                   1.0E-08
 QS| GAPW|      One center basis from orbital basis primitives
 QS| GAPW|                   eps_fit:                                    1.0E-04
 QS| GAPW|                   eps_iso:                                    1.0E-12
 QS| GAPW|                   eps_svd:                                    1.0E-08
 QS| GAPW|                   eps_cpc:                                    1.0E-12
 QS| GAPW|   atom-r-grid: quadrature:                                     GC_LOG
 QS| GAPW|      atom-s-grid:  max l :                                          6
 QS| GAPW|      max_l_rho0 :                                                   2


 ATOMIC KIND INFORMATION

  1. Atomic kind: H                                     Number of atoms:       8

     Orbital Basis Set                                        aug-DZVP-MOLOPT-ae

       Number of orbital shell sets:                                           1
       Number of orbital shells:                                               5
       Number of primitive Cartesian functions:                                5
       Number of Cartesian basis functions:                                    9
       Number of spherical basis functions:                                    9
       Norm type:                                                              2

       Normalised Cartesian orbitals:

                        Set   Shell   Orbital            Exponent    Coefficient

                          1       1    2s                0.035000       0.000000
                                                         0.111920       0.009149
                                                         0.374948       0.205449
                                                         1.446686       0.373852
                                                        12.248855       0.310040

                          1       2    3s                0.035000       0.000000
                                                         0.111920       0.143650
                                                         0.374948       0.007287
                                                         1.446686      -0.188851
                                                        12.248855      -0.144753

                          1       3    4s                0.035000       0.090463
                                                         0.111920      -0.203934
                                                         0.374948      -0.000376
                                                         1.446686      -0.000051
                                                        12.248855       0.000000

                          1       4    3px               0.035000       0.000000
                                                         0.111920       0.007225
                                                         0.374948       0.280770
                                                         1.446686       0.896497
                                                        12.248855      -0.764411
                          1       4    3py               0.035000       0.000000
                                                         0.111920       0.007225
                                                         0.374948       0.280770
                                                         1.446686       0.896497
                                                        12.248855      -0.764411
                          1       4    3pz               0.035000       0.000000
                                                         0.111920       0.007225
                                                         0.374948       0.280770
                                                         1.446686       0.896497
                                                        12.248855      -0.764411

                          1       5    4px               0.035000       0.011331
                                                         0.111920       0.048737
                                                         0.374948       0.028490
                                                         1.446686       0.035587
                                                        12.248855       0.000000
                          1       5    4py               0.035000       0.011331
                                                         0.111920       0.048737
                                                         0.374948       0.028490
                                                         1.446686       0.035587
                                                        12.248855       0.000000
                          1       5    4pz               0.035000       0.011331
                                                         0.111920       0.048737
                                                         0.374948       0.028490
                                                         1.446686       0.035587
                                                        12.248855       0.000000

     RI Auxiliary Basis Set             RI_aug-DZVP-MOLOPT-ae_N_RI_009_s_p_d_f_g

       Number of orbital shell sets:                                           5
       Number of orbital shells:                                               5
       Number of primitive Cartesian functions:                                5
       Number of Cartesian basis functions:                                    9
       Number of spherical basis functions:                                    9
       Norm type:                                                              2

       Normalised Cartesian orbitals:

                        Set   Shell   Orbital            Exponent    Coefficient

                          1       1    4px               0.330315       0.356944
                          1       1    4py               0.330315       0.356944
                          1       1    4pz               0.330315       0.356944

                          2       1    1s                0.373568       0.340555

                          3       1    2s                0.886477       0.651119

                          4       1    5px               1.451319       2.270616
                          4       1    5py               1.451319       2.270616
                          4       1    5pz               1.451319       2.270616

                          5       1    3s                5.028848       2.393379

       Atomic covalent radius [Angstrom]:                                  0.320

       Atomic van der Waals radius [Angstrom]:                             1.090

     The atoms of this atomic kind are PAW atoms (GAPW):
       Hard Gaussian function radius:                                      1.200
       Rho0 radius:                                                        1.200
       Maximum GTO radius used for PAW projector construction:            24.566

     GAPW Soft Basis Set                                 aug-DZVP-MOLOPT-ae_soft

       Number of orbital shell sets:                                           1
       Number of orbital shells:                                               5
       Number of primitive Cartesian functions:                                4
       Number of Cartesian basis functions:                                    9
       Number of spherical basis functions:                                    9
       Norm type:                                                              2

       Normalised Cartesian orbitals:

                        Set   Shell   Orbital            Exponent    Coefficient

                          1       1    2s                0.035000       0.000000
                                                         0.111920       0.009149
                                                         0.374948       0.205449
                                                         1.446686       0.373852

                          1       2    3s                0.035000       0.000000
                                                         0.111920       0.143650
                                                         0.374948       0.007287
                                                         1.446686      -0.188851

                          1       3    4s                0.035000       0.090463
                                                         0.111920      -0.203934
                                                         0.374948      -0.000376
                                                         1.446686      -0.000051

                          1       4    3px               0.035000       0.000000
                                                         0.111920       0.007225
                                                         0.374948       0.280770
                                                         1.446686       0.896497
                          1       4    3py               0.035000       0.000000
                                                         0.111920       0.007225
                                                         0.374948       0.280770
                                                         1.446686       0.896497
                          1       4    3pz               0.035000       0.000000
                                                         0.111920       0.007225
                                                         0.374948       0.280770
                                                         1.446686       0.896497

                          1       5    4px               0.035000       0.011331
                                                         0.111920       0.048737
                                                         0.374948       0.028490
                                                         1.446686       0.035587
                          1       5    4py               0.035000       0.011331
                                                         0.111920       0.048737
                                                         0.374948       0.028490
                                                         1.446686       0.035587
                          1       5    4pz               0.035000       0.011331
                                                         0.111920       0.048737
                                                         0.374948       0.028490
                                                         1.446686       0.035587

     AE Potential information for                                            ALL

       Description:                                       All-electron potential
                                          Krack, Parrinello, PCCP 2, 2105 (2000)

       Gaussian exponent of the core charge distribution:              12.500000
       Electronic configuration (s p d ...):                           1   0   0

  2. Atomic kind: S                                     Number of atoms:       1

     Orbital Basis Set                                        aug-DZVP-MOLOPT-ae

       Number of orbital shell sets:                                           3
       Number of orbital shells:                                              12
       Number of primitive Cartesian functions:                               18
       Number of Cartesian basis functions:                                   39
       Number of spherical basis functions:                                   34
       Norm type:                                                              2

       Normalised Cartesian orbitals:

                        Set   Shell   Orbital            Exponent    Coefficient

                          1       1    1s                0.070000       0.160238
                                                         0.132026      -0.106319
                                                         0.461903      -0.064590
                                                         2.043261       0.000000
                                                         6.030247       0.000000
                                                        18.817576       0.000000
                                                        61.243244       0.000000
                                                       262.037180       0.000000

                          1       2    2px               0.070000       0.000000
                                                         0.132026      -0.006041
                                                         0.461903       0.020884
                                                         2.043261      -1.163342
                                                         6.030247      -7.192527
                                                        18.817576     -14.902856
                                                        61.243244     -16.017959
                                                       262.037180     -14.606063
                          1       2    2py               0.070000       0.000000
                                                         0.132026      -0.006041
                                                         0.461903       0.020884
                                                         2.043261      -1.163342
                                                         6.030247      -7.192527
                                                        18.817576     -14.902856
                                                        61.243244     -16.017959
                                                       262.037180     -14.606063
                          1       2    2pz               0.070000       0.000000
                                                         0.132026      -0.006041
                                                         0.461903       0.020884
                                                         2.043261      -1.163342
                                                         6.030247      -7.192527
                                                        18.817576     -14.902856
                                                        61.243244     -16.017959
                                                       262.037180     -14.606063

                          1       3    3px               0.070000       0.000000
                                                         0.132026       0.013372
                                                         0.461903       0.460806
                                                         2.043261       0.527227
                                                         6.030247      -0.800963
                                                        18.817576       1.692650
                                                        61.243244      -2.127051
                                                       262.037180       6.627568
                          1       3    3py               0.070000       0.000000
                                                         0.132026       0.013372
                                                         0.461903       0.460806
                                                         2.043261       0.527227
                                                         6.030247      -0.800963
                                                        18.817576       1.692650
                                                        61.243244      -2.127051
                                                       262.037180       6.627568
                          1       3    3pz               0.070000       0.000000
                                                         0.132026       0.013372
                                                         0.461903       0.460806
                                                         2.043261       0.527227
                                                         6.030247      -0.800963
                                                        18.817576       1.692650
                                                        61.243244      -2.127051
                                                       262.037180       6.627568

                          1       4    4px               0.070000       0.000000
                                                         0.132026       0.122461
                                                         0.461903      -0.074630
                                                         2.043261      -0.266435
                                                         6.030247      -0.600117
                                                        18.817576      -2.837173
                                                        61.243244       0.679283
                                                       262.037180      -9.723876
                          1       4    4py               0.070000       0.000000
                                                         0.132026       0.122461
                                                         0.461903      -0.074630
                                                         2.043261      -0.266435
                                                         6.030247      -0.600117
                                                        18.817576      -2.837173
                                                        61.243244       0.679283
                                                       262.037180      -9.723876
                          1       4    4pz               0.070000       0.000000
                                                         0.132026       0.122461
                                                         0.461903      -0.074630
                                                         2.043261      -0.266435
                                                         6.030247      -0.600117
                                                        18.817576      -2.837173
                                                        61.243244       0.679283
                                                       262.037180      -9.723876

                          1       5    5px               0.070000      -0.010761
                                                         0.132026      -0.065366
                                                         0.461903       0.662552
                                                         2.043261       0.000000
                                                         6.030247       0.000000
                                                        18.817576       0.000000
                                                        61.243244       0.000000
                                                       262.037180       0.000000
                          1       5    5py               0.070000      -0.010761
                                                         0.132026      -0.065366
                                                         0.461903       0.662552
                                                         2.043261       0.000000
                                                         6.030247       0.000000
                                                        18.817576       0.000000
                                                        61.243244       0.000000
                                                       262.037180       0.000000
                          1       5    5pz               0.070000      -0.010761
                                                         0.132026      -0.065366
                                                         0.461903       0.662552
                                                         2.043261       0.000000
                                                         6.030247       0.000000
                                                        18.817576       0.000000
                                                        61.243244       0.000000
                                                       262.037180       0.000000

                          1       6    3dx2              0.070000       0.000000
                                                         0.132026       0.010167
                                                         0.461903       0.321348
                                                         2.043261       1.422467
                                                         6.030247      -0.691425
                                                        18.817576       4.642944
                                                        61.243244     -11.887587
                                                       262.037180      63.210336
                          1       6    3dxy              0.070000       0.000000
                                                         0.132026       0.017609
                                                         0.461903       0.556591
                                                         2.043261       2.463785
                                                         6.030247      -1.197583
                                                        18.817576       8.041814
                                                        61.243244     -20.589904
                                                       262.037180     109.483513
                          1       6    3dxz              0.070000       0.000000
                                                         0.132026       0.017609
                                                         0.461903       0.556591
                                                         2.043261       2.463785
                                                         6.030247      -1.197583
                                                        18.817576       8.041814
                                                        61.243244     -20.589904
                                                       262.037180     109.483513
                          1       6    3dy2              0.070000       0.000000
                                                         0.132026       0.010167
                                                         0.461903       0.321348
                                                         2.043261       1.422467
                                                         6.030247      -0.691425
                                                        18.817576       4.642944
                                                        61.243244     -11.887587
                                                       262.037180      63.210336
                          1       6    3dyz              0.070000       0.000000
                                                         0.132026       0.017609
                                                         0.461903       0.556591
                                                         2.043261       2.463785
                                                         6.030247      -1.197583
                                                        18.817576       8.041814
                                                        61.243244     -20.589904
                                                       262.037180     109.483513
                          1       6    3dz2              0.070000       0.000000
                                                         0.132026       0.010167
                                                         0.461903       0.321348
                                                         2.043261       1.422467
                                                         6.030247      -0.691425
                                                        18.817576       4.642944
                                                        61.243244     -11.887587
                                                       262.037180      63.210336

                          1       7    4dx2              0.070000       0.004993
                                                         0.132026       0.031835
                                                         0.461903       0.041246
                                                         2.043261       0.000000
                                                         6.030247       0.000000
                                                        18.817576       0.000000
                                                        61.243244       0.000000
                                                       262.037180       0.000000
                          1       7    4dxy              0.070000       0.008648
                                                         0.132026       0.055140
                                                         0.461903       0.071440
                                                         2.043261       0.000000
                                                         6.030247       0.000000
                                                        18.817576       0.000000
                                                        61.243244       0.000000
                                                       262.037180       0.000000
                          1       7    4dxz              0.070000       0.008648
                                                         0.132026       0.055140
                                                         0.461903       0.071440
                                                         2.043261       0.000000
                                                         6.030247       0.000000
                                                        18.817576       0.000000
                                                        61.243244       0.000000
                                                       262.037180       0.000000
                          1       7    4dy2              0.070000       0.004993
                                                         0.132026       0.031835
                                                         0.461903       0.041246
                                                         2.043261       0.000000
                                                         6.030247       0.000000
                                                        18.817576       0.000000
                                                        61.243244       0.000000
                                                       262.037180       0.000000
                          1       7    4dyz              0.070000       0.008648
                                                         0.132026       0.055140
                                                         0.461903       0.071440
                                                         2.043261       0.000000
                                                         6.030247       0.000000
                                                        18.817576       0.000000
                                                        61.243244       0.000000
                                                       262.037180       0.000000
                          1       7    4dz2              0.070000       0.004993
                                                         0.132026       0.031835
                                                         0.461903       0.041246
                                                         2.043261       0.000000
                                                         6.030247       0.000000
                                                        18.817576       0.000000
                                                        61.243244       0.000000
                                                       262.037180       0.000000

                          1       8    4fx3              0.070000       0.001179
                                                         0.132026       0.004915
                                                         0.461903       0.162520
                                                         2.043261       0.000000
                                                         6.030247       0.000000
                                                        18.817576       0.000000
                                                        61.243244       0.000000
                                                       262.037180       0.000000
                          1       8    4fx2y             0.070000       0.002636
                                                         0.132026       0.010991
                                                         0.461903       0.363406
                                                         2.043261       0.000000
                                                         6.030247       0.000000
                                                        18.817576       0.000000
                                                        61.243244       0.000000
                                                       262.037180       0.000000
                          1       8    4fx2z             0.070000       0.002636
                                                         0.132026       0.010991
                                                         0.461903       0.363406
                                                         2.043261       0.000000
                                                         6.030247       0.000000
                                                        18.817576       0.000000
                                                        61.243244       0.000000
                                                       262.037180       0.000000
                          1       8    4fxy2             0.070000       0.002636
                                                         0.132026       0.010991
                                                         0.461903       0.363406
                                                         2.043261       0.000000
                                                         6.030247       0.000000
                                                        18.817576       0.000000
                                                        61.243244       0.000000
                                                       262.037180       0.000000
                          1       8    4fxyz             0.070000       0.004567
                                                         0.132026       0.019037
                                                         0.461903       0.629438
                                                         2.043261       0.000000
                                                         6.030247       0.000000
                                                        18.817576       0.000000
                                                        61.243244       0.000000
                                                       262.037180       0.000000
                          1       8    4fxz2             0.070000       0.002636
                                                         0.132026       0.010991
                                                         0.461903       0.363406
                                                         2.043261       0.000000
                                                         6.030247       0.000000
                                                        18.817576       0.000000
                                                        61.243244       0.000000
                                                       262.037180       0.000000
                          1       8    4fy3              0.070000       0.001179
                                                         0.132026       0.004915
                                                         0.461903       0.162520
                                                         2.043261       0.000000
                                                         6.030247       0.000000
                                                        18.817576       0.000000
                                                        61.243244       0.000000
                                                       262.037180       0.000000
                          1       8    4fy2z             0.070000       0.002636
                                                         0.132026       0.010991
                                                         0.461903       0.363406
                                                         2.043261       0.000000
                                                         6.030247       0.000000
                                                        18.817576       0.000000
                                                        61.243244       0.000000
                                                       262.037180       0.000000
                          1       8    4fyz2             0.070000       0.002636
                                                         0.132026       0.010991
                                                         0.461903       0.363406
                                                         2.043261       0.000000
                                                         6.030247       0.000000
                                                        18.817576       0.000000
                                                        61.243244       0.000000
                                                       262.037180       0.000000
                          1       8    4fz3              0.070000       0.001179
                                                         0.132026       0.004915
                                                         0.461903       0.162520
                                                         2.043261       0.000000
                                                         6.030247       0.000000
                                                        18.817576       0.000000
                                                        61.243244       0.000000
                                                       262.037180       0.000000

                          2       1    1s               45.482850      -1.175639
                                                         4.876333       1.431452
                                                         1.864066       0.572778
                                                         0.430250      -0.034078
                                                         0.152872       0.004775

                          2       2    2s               45.482850      -0.314552
                                                         4.876333       0.236776
                                                         1.864066      -0.009167
                                                         0.430250       0.282804
                                                         0.152872       0.044200

                          2       3    3s               45.482850       0.143312
                                                         4.876333      -0.094249
                                                         1.864066      -0.118759
                                                         0.430250      -0.172982
                                                         0.152872       0.236834

                          3       1    1s             9184.968607      -3.488008
                                                      1381.514008      -6.811623
                                                       313.892819      -9.517673
                                                        87.514579     -10.059465
                                                        25.931396      -3.470689

     RI Auxiliary Basis Set             RI_aug-DZVP-MOLOPT-ae_N_RI_073_s_p_d_f_g

       Number of orbital shell sets:                                          21
       Number of orbital shells:                                              21
       Number of primitive Cartesian functions:                               21
       Number of Cartesian basis functions:                                   90
       Number of spherical basis functions:                                   73
       Norm type:                                                              2

       Normalised Cartesian orbitals:

                        Set   Shell   Orbital            Exponent    Coefficient

                          1       1    1s                0.290392       0.281935

                          2       1    8px               0.317106       0.339192
                          2       1    8py               0.317106       0.339192
                          2       1    8pz               0.317106       0.339192

                          3       1   19fx3              0.361501       0.149177
                          3       1   19fx2y             0.361501       0.333569
                          3       1   19fx2z             0.361501       0.333569
                          3       1   19fxy2             0.361501       0.333569
                          3       1   19fxyz             0.361501       0.577759
                          3       1   19fxz2             0.361501       0.333569
                          3       1   19fy3              0.361501       0.149177
                          3       1   19fy2z             0.361501       0.333569
                          3       1   19fyz2             0.361501       0.333569
                          3       1   19fz3              0.361501       0.149177

                          4       1   14dx2              0.409918       0.345644
                          4       1   14dxy              0.409918       0.598673
                          4       1   14dxz              0.409918       0.598673
                          4       1   14dy2              0.409918       0.345644
                          4       1   14dyz              0.409918       0.598673
                          4       1   14dz2              0.409918       0.345644

                          5       1    2s                0.463479       0.400343

                          6       1   21gx4              0.549723       0.214700
                          6       1   21gx3y             0.549723       0.568042
                          6       1   21gx3z             0.549723       0.568042
                          6       1   21gx2y2            0.549723       0.733339
                          6       1   21gx2yz            0.549723       1.270180
                          6       1   21gx2z2            0.549723       0.733339
                          6       1   21gxy3             0.549723       0.568042
                          6       1   21gxy2z            0.549723       1.270180
                          6       1   21gxyz2            0.549723       1.270180
                          6       1   21gxz3             0.549723       0.568042
                          6       1   21gy4              0.549723       0.214700
                          6       1   21gy3z             0.549723       0.568042
                          6       1   21gy2z2            0.549723       0.733339
                          6       1   21gyz3             0.549723       0.568042
                          6       1   21gz4              0.549723       0.214700

                          7       1    9px               0.561683       0.693113
                          7       1    9py               0.561683       0.693113
                          7       1    9pz               0.561683       0.693113

                          8       1   15dx2              0.712695       0.909894
                          8       1   15dxy              0.712695       1.575983
                          8       1   15dxz              0.712695       1.575983
                          8       1   15dy2              0.712695       0.909894
                          8       1   15dyz              0.712695       1.575983
                          8       1   15dz2              0.712695       0.909894

                          9       1   20fx3              0.950953       1.314656
                          9       1   20fx2y             0.950953       2.939661
                          9       1   20fx2z             0.950953       2.939661
                          9       1   20fxy2             0.950953       2.939661
                          9       1   20fxyz             0.950953       5.091642
                          9       1   20fxz2             0.950953       2.939661
                          9       1   20fy3              0.950953       1.314656
                          9       1   20fy2z             0.950953       2.939661
                          9       1   20fyz2             0.950953       2.939661
                          9       1   20fz3              0.950953       1.314656

                         10       1    3s                1.539165       0.984859

                         11       1   10px               1.859580       3.095342
                         11       1   10py               1.859580       3.095342
                         11       1   10pz               1.859580       3.095342

                         12       1   16dx2              2.381044       7.511946
                         12       1   16dxy              2.381044      13.011071
                         12       1   16dxz              2.381044      13.011071
                         12       1   16dy2              2.381044       7.511946
                         12       1   16dyz              2.381044      13.011071
                         12       1   16dz2              2.381044       7.511946

                         13       1    4s                6.283281       2.828459

                         14       1   11px               7.483905      17.644138
                         14       1   11py               7.483905      17.644138
                         14       1   11pz               7.483905      17.644138

                         15       1   17dx2              8.840758      74.604682
                         15       1   17dxy              8.840758     129.219100
                         15       1   17dxz              8.840758     129.219100
                         15       1   17dy2              8.840758      74.604682
                         15       1   17dyz              8.840758     129.219100
                         15       1   17dz2              8.840758      74.604682

                         16       1    5s               25.578292       8.106134

                         17       1   12px              28.559794      94.109601
                         17       1   12py              28.559794      94.109601
                         17       1   12pz              28.559794      94.109601

                         18       1   18dx2             31.834018     702.214056
                         18       1   18dxy             31.834018    1216.270423
                         18       1   18dxz             31.834018    1216.270423
                         18       1   18dy2             31.834018     702.214056
                         18       1   18dyz             31.834018    1216.270423
                         18       1   18dz2             31.834018     702.214056

                         19       1    6s               96.218093      21.895388

                         20       1   13px             100.987823     456.327194
                         20       1   13py             100.987823     456.327194
                         20       1   13pz             100.987823     456.327194

                         21       1    7s              352.070794      57.927207

       Atomic covalent radius [Angstrom]:                                  1.020

       Atomic van der Waals radius [Angstrom]:                             1.800

     The atoms of this atomic kind are PAW atoms (GAPW):
       Hard Gaussian function radius:                                      1.512
       Rho0 radius:                                                        1.512
       Maximum GTO radius used for PAW projector construction:            24.566

     GAPW Soft Basis Set                                 aug-DZVP-MOLOPT-ae_soft

       Number of orbital shell sets:                                           3
       Number of orbital shells:                                              12
       Number of primitive Cartesian functions:                                7
       Number of Cartesian basis functions:                                   39
       Number of spherical basis functions:                                   34
       Norm type:                                                              2

       Normalised Cartesian orbitals:

                        Set   Shell   Orbital            Exponent    Coefficient

                          1       1    1s                0.070000       0.160238
                                                         0.132026      -0.106319
                                                         0.461903      -0.064590
                                                         2.043261       0.000000

                          1       2    2px               0.070000       0.000000
                                                         0.132026      -0.006041
                                                         0.461903       0.020884
                                                         2.043261      -1.163342
                          1       2    2py               0.070000       0.000000
                                                         0.132026      -0.006041
                                                         0.461903       0.020884
                                                         2.043261      -1.163342
                          1       2    2pz               0.070000       0.000000
                                                         0.132026      -0.006041
                                                         0.461903       0.020884
                                                         2.043261      -1.163342

                          1       3    3px               0.070000       0.000000
                                                         0.132026       0.013372
                                                         0.461903       0.460806
                                                         2.043261       0.527227
                          1       3    3py               0.070000       0.000000
                                                         0.132026       0.013372
                                                         0.461903       0.460806
                                                         2.043261       0.527227
                          1       3    3pz               0.070000       0.000000
                                                         0.132026       0.013372
                                                         0.461903       0.460806
                                                         2.043261       0.527227

                          1       4    4px               0.070000       0.000000
                                                         0.132026       0.122461
                                                         0.461903      -0.074630
                                                         2.043261      -0.266435
                          1       4    4py               0.070000       0.000000
                                                         0.132026       0.122461
                                                         0.461903      -0.074630
                                                         2.043261      -0.266435
                          1       4    4pz               0.070000       0.000000
                                                         0.132026       0.122461
                                                         0.461903      -0.074630
                                                         2.043261      -0.266435

                          1       5    5px               0.070000      -0.010761
                                                         0.132026      -0.065366
                                                         0.461903       0.662552
                                                         2.043261       0.000000
                          1       5    5py               0.070000      -0.010761
                                                         0.132026      -0.065366
                                                         0.461903       0.662552
                                                         2.043261       0.000000
                          1       5    5pz               0.070000      -0.010761
                                                         0.132026      -0.065366
                                                         0.461903       0.662552
                                                         2.043261       0.000000

                          1       6    3dx2              0.070000       0.000000
                                                         0.132026       0.010167
                                                         0.461903       0.321348
                                                         2.043261       1.422467
                          1       6    3dxy              0.070000       0.000000
                                                         0.132026       0.017609
                                                         0.461903       0.556591
                                                         2.043261       2.463785
                          1       6    3dxz              0.070000       0.000000
                                                         0.132026       0.017609
                                                         0.461903       0.556591
                                                         2.043261       2.463785
                          1       6    3dy2              0.070000       0.000000
                                                         0.132026       0.010167
                                                         0.461903       0.321348
                                                         2.043261       1.422467
                          1       6    3dyz              0.070000       0.000000
                                                         0.132026       0.017609
                                                         0.461903       0.556591
                                                         2.043261       2.463785
                          1       6    3dz2              0.070000       0.000000
                                                         0.132026       0.010167
                                                         0.461903       0.321348
                                                         2.043261       1.422467

                          1       7    4dx2              0.070000       0.004993
                                                         0.132026       0.031835
                                                         0.461903       0.041246
                                                         2.043261       0.000000
                          1       7    4dxy              0.070000       0.008648
                                                         0.132026       0.055140
                                                         0.461903       0.071440
                                                         2.043261       0.000000
                          1       7    4dxz              0.070000       0.008648
                                                         0.132026       0.055140
                                                         0.461903       0.071440
                                                         2.043261       0.000000
                          1       7    4dy2              0.070000       0.004993
                                                         0.132026       0.031835
                                                         0.461903       0.041246
                                                         2.043261       0.000000
                          1       7    4dyz              0.070000       0.008648
                                                         0.132026       0.055140
                                                         0.461903       0.071440
                                                         2.043261       0.000000
                          1       7    4dz2              0.070000       0.004993
                                                         0.132026       0.031835
                                                         0.461903       0.041246
                                                         2.043261       0.000000

                          1       8    4fx3              0.070000       0.001179
                                                         0.132026       0.004915
                                                         0.461903       0.162520
                                                         2.043261       0.000000
                          1       8    4fx2y             0.070000       0.002636
                                                         0.132026       0.010991
                                                         0.461903       0.363406
                                                         2.043261       0.000000
                          1       8    4fx2z             0.070000       0.002636
                                                         0.132026       0.010991
                                                         0.461903       0.363406
                                                         2.043261       0.000000
                          1       8    4fxy2             0.070000       0.002636
                                                         0.132026       0.010991
                                                         0.461903       0.363406
                                                         2.043261       0.000000
                          1       8    4fxyz             0.070000       0.004567
                                                         0.132026       0.019037
                                                         0.461903       0.629438
                                                         2.043261       0.000000
                          1       8    4fxz2             0.070000       0.002636
                                                         0.132026       0.010991
                                                         0.461903       0.363406
                                                         2.043261       0.000000
                          1       8    4fy3              0.070000       0.001179
                                                         0.132026       0.004915
                                                         0.461903       0.162520
                                                         2.043261       0.000000
                          1       8    4fy2z             0.070000       0.002636
                                                         0.132026       0.010991
                                                         0.461903       0.363406
                                                         2.043261       0.000000
                          1       8    4fyz2             0.070000       0.002636
                                                         0.132026       0.010991
                                                         0.461903       0.363406
                                                         2.043261       0.000000
                          1       8    4fz3              0.070000       0.001179
                                                         0.132026       0.004915
                                                         0.461903       0.162520
                                                         2.043261       0.000000

                          2       1    1s                1.864066       0.572778
                                                         0.430250      -0.034078
                                                         0.152872       0.004775

                          2       2    2s                1.864066      -0.009167
                                                         0.430250       0.282804
                                                         0.152872       0.044200

                          2       3    3s                1.864066      -0.118759
                                                         0.430250      -0.172982
                                                         0.152872       0.236834

                          3       1    1s         

     AE Potential information for                                            ALL

       Description:                                       All-electron potential
                                          Krack, Parrinello, PCCP 2, 2105 (2000)

       Gaussian exponent of the core charge distribution:               2.834467
       Electronic configuration (s p d ...):                           6  10   0

  3. Atomic kind: O                                     Number of atoms:       1

     Orbital Basis Set                                        aug-DZVP-MOLOPT-ae

       Number of orbital shell sets:                                           2
       Number of orbital shells:                                              10
       Number of primitive Cartesian functions:                               12
       Number of Cartesian basis functions:                                   35
       Number of spherical basis functions:                                   30
       Norm type:                                                              2

       Normalised Cartesian orbitals:

                        Set   Shell   Orbital            Exponent    Coefficient

                          1       1    2s                0.090000       0.120905
                                                         0.191936      -0.019521
                                                         0.750068       0.059582
                                                         2.907977       0.000000
                                                        16.368686       0.000000

                          1       2    3px               0.090000       0.000000
                                                         0.191936       0.023686
                                                         0.750068       0.626550
                                                         2.907977       2.082711
                                                        16.368686       3.596544
                          1       2    3py               0.090000       0.000000
                                                         0.191936       0.023686
                                                         0.750068       0.626550
                                                         2.907977       2.082711
                                                        16.368686       3.596544
                          1       2    3pz               0.090000       0.000000
                                                         0.191936       0.023686
                                                         0.750068       0.626550
                                                         2.907977       2.082711
                                                        16.368686       3.596544

                          1       3    4px               0.090000       0.000000
                                                         0.191936       0.196557
                                                         0.750068      -0.157257
                                                         2.907977      -0.566756
                                                        16.368686      -1.323495
                          1       3    4py               0.090000       0.000000
                                                         0.191936       0.196557
                                                         0.750068      -0.157257
                                                         2.907977      -0.566756
                                                        16.368686      -1.323495
                          1       3    4pz               0.090000       0.000000
                                                         0.191936       0.196557
                                                         0.750068      -0.157257
                                                         2.907977      -0.566756
                                                        16.368686      -1.323495

                          1       4    5px               0.090000       0.020606
                                                         0.191936       0.124186
                                                         0.750068       0.098287
                                                         2.907977       0.000000
                                                        16.368686       0.000000
                          1       4    5py               0.090000       0.020606
                                                         0.191936       0.124186
                                                         0.750068       0.098287
                                                         2.907977       0.000000
                                                        16.368686       0.000000
                          1       4    5pz               0.090000       0.020606
                                                         0.191936       0.124186
                                                         0.750068       0.098287
                                                         2.907977       0.000000
                                                        16.368686       0.000000

                          1       5    4dx2              0.090000       0.000000
                                                         0.191936       0.030414
                                                         0.750068       0.724129
                                                         2.907977       1.586204
                                                        16.368686       1.487256
                          1       5    4dxy              0.090000       0.000000
                                                         0.191936       0.052678
                                                         0.750068       1.254227
                                                         2.907977       2.747386
                                                        16.368686       2.576002
                          1       5    4dxz              0.090000       0.000000
                                                         0.191936       0.052678
                                                         0.750068       1.254227
                                                         2.907977       2.747386
                                                        16.368686       2.576002
                          1       5    4dy2              0.090000       0.000000
                                                         0.191936       0.030414
                                                         0.750068       0.724129
                                                         2.907977       1.586204
                                                        16.368686       1.487256
                          1       5    4dyz              0.090000       0.000000
                                                         0.191936       0.052678
                                                         0.750068       1.254227
                                                         2.907977       2.747386
                                                        16.368686       2.576002
                          1       5    4dz2              0.090000       0.000000
                                                         0.191936       0.030414
                                                         0.750068       0.724129
                                                         2.907977       1.586204
[...]
 augmented-plane-wave method.
 https://doi.org/10.2533/000942905777676164

 M. Frigo, S. G. Johnson.
 Proc. IEEE 93, 216-231 (2005).
 The design and implementation of FFTW3.
 https://doi.org/10.1109/JPROC.2004.840301

 R. L. Martin.
 J. Chem. Phys. 118, 4775-4777 (2003).
 Natural transition orbitals.
 https://doi.org/10.1063/1.1558471

 M. Krack, M. Parrinello.
 Phys. Chem. Chem. Phys. 2, 2105-2112 (2000).
 All-electron ab-initio molecular dynamics.
 https://doi.org/10.1039/b001167n

 G. Lippert, J. Hutter, M. Parrinello.
 Theor. Chem. Acc. 103, 124-140 (1999).
 The Gaussian and augmented-plane-wave density functional method for ab initio 
 molecular dynamics simulations.
 https://doi.org/10.1007/s002140050523

 J. P. Perdew, K. Burke, M. Ernzerhof.
 Phys. Rev. Lett. 77, 3865-3868 (1996).
 Generalized gradient approximation made simple.
 https://doi.org/10.1103/PhysRevLett.77.3865


 -------------------------------------------------------------------------------
 -                                                                             -
 -                                T I M I N G                                  -
 -                                                                             -
 -------------------------------------------------------------------------------
 SUBROUTINE                       CALLS  ASD         SELF TIME        TOTAL TIME
                                MAXIMUM       AVERAGE  MAXIMUM  AVERAGE  MAXIMUM
 CP2K                                 1  1.0    0.022    0.040  422.681  422.683
 qs_energies                          1  2.0    0.000    0.000  422.323  422.324
 qs_energies_properties               1  3.0    0.000    0.000  278.483  278.484
 tddfpt                               1  4.0    0.000    0.000  278.483  278.484
 tddfpt_energies                      1  5.0    0.000    0.000  278.456  278.456
 tddfpt_davidson_solver               1  6.0    0.001    0.001  276.439  276.440
 tddfpt_compute_Aop_evects            9  7.0    0.000    0.000  274.776  274.777
 fhxc_kernel                          9  8.0    0.007    0.008  240.914  240.915
 fft_wrap_pw1pw2                   5126 11.1    0.101    0.126  141.515  149.364
 fft_wrap_pw1pw2_250               3608 12.1    2.873    3.736  133.789  146.039
 scf_env_do_scf                       1  3.0    0.000    0.000  142.903  142.913
 scf_env_do_scf_inner_loop           72  4.0    0.001    0.004  142.902  142.913
 fft3d_ps                          5126 13.1   18.076   25.017  130.009  136.965
 qs_ks_update_qs_env                 72  5.0    0.000    0.001  113.027  113.065
 rebuild_ks_matrix                   72  6.0    0.000    0.000  113.020  113.057
 qs_ks_build_kohn_sham_matrix        72  7.0    0.010    0.012  113.020  113.057
 mp_alltoall_z22v                  5126 15.1  106.084  112.670  106.084  112.670
 tddfpt_apply_coulomb               180  9.0    0.003    0.004   79.813   82.456
 pw_poisson_solve                   252  9.4    1.063    1.399   77.631   80.276
 qs_rho_update_rho_low              254  7.8    0.003    0.003   77.094   77.102
 calculate_rho_elec                 254  8.8    0.333    0.472   74.129   74.135
 integrate_four_center              432  9.8   16.341   32.548   70.361   70.422
 x_to_yz                           2092 13.7    2.303    3.894   59.720   62.102
 yz_to_x                           2022 14.5    1.784    2.057   50.290   55.989
 xc_pw_derive                      1515 11.0    0.012    0.014   52.186   54.389
 mp_sync                           2290 11.5   36.009   50.781   36.009   50.781
 tddfpt_apply_xc_analytic           180  9.0    0.287    0.404   45.415   46.933
 integrate_v_rspace                 252  9.0    0.007    0.008   43.393   45.198
 density_rs2pw                      254  9.8    0.011    0.013   42.008   45.010
 potential_pw2rs                    252 10.0    0.026    0.033   42.159   42.367
 transfer_pw2rs                    1261 10.9    0.023    0.030   39.313   40.300
 ps_wavelet_solve                   252 10.4   15.113   20.974   36.963   39.632
 hfx_ks_matrix                       72  8.0    0.001    0.002   38.845   38.870
 prepare_gapw_den                   253  8.7    0.004    0.005   33.573   35.730
 xc_pw_divergence                   252 10.7    0.005    0.006   34.217   35.168
 tddfpt_apply_hfx                     9  8.0    0.002    0.002   33.479   33.480
 mp_waitany                       83038 12.8   28.679   32.335   28.679   32.335
 tddft_hfx_matrix                   360  9.0    0.004    0.008   31.525   31.571
 grid_collocate_task_list           254  9.8   29.460   31.567   29.460   31.567
 mp_sum_d                          6851  7.5   13.470   29.345   13.470   29.345
 integrate_four_center_main         432 10.8    0.139    5.688    9.388   29.132
 transfer_rs2pw                    1270 10.8    0.033    0.048   25.697   27.250
 xc_calc_2nd_deriv_analytical      1260 10.1    1.282    1.589   26.295   26.997
 transfer_pw2rs_250                 505 11.7    4.928    5.385   23.837   25.596
 mp_alltoall_d54                    252 11.4   10.955   23.478   10.955   23.478
 integrate_four_center_bin        25075 11.8    9.249   23.445    9.249   23.445
 put_rho0_on_grid                   253  9.7    0.362    0.554   20.949   23.106
 qs_vxc_create                       72  8.0    0.001    0.001   20.556   20.556
 xc_vxc_pw_create                    72  9.0    0.151    0.201   20.555   20.556
 integrate_vhg0_rspace              252  9.4    0.421    0.498   18.096   18.568
 transfer_rs2pw_250                 508 11.8    5.020    5.545   16.272   17.934
 fft_wrap_pw1pw2_90                 506 11.9    0.101    0.155    6.236   15.917
 mp_alltoall_d45                    253 11.4   11.271   14.104   11.271   14.104
 mp_waitall_1                    492604 13.2   10.007   12.599   10.007   12.599
 mp_alltoall_d11v                 15932 11.6    8.643   12.213    8.643   12.213
 transfer_pw2rs_90                  252 12.0    0.861    1.016    8.836   12.158
 gaVxcgb_GC                         756  9.7    0.125   12.125    0.125   12.125
 calculate_rho_atom                1012  9.7    1.928   12.056    1.928   12.056
 xc_rho_set_and_dset_create          73 10.0    0.180    0.234    9.733   10.820
 mp_sum_dv                        25711  8.9   10.169   10.598   10.169   10.598
 sum_up_and_integrate                72  8.0    0.001    0.001   10.047   10.560
 calculate_xc_2nd_deriv_atom        180  9.0    0.078    1.418    0.211   10.488
 mp_isend_dm3                     10126 12.8    7.285   10.207    7.285   10.207
 mp_sum_dm                        11505 10.0    7.986    8.999    7.986    8.999
 cp2k_distribution_to_z_slices      252 10.4    1.046    1.281    6.903    7.734
 Vh_1c_gg_integrals                 252  9.4    0.042    1.427    2.800    7.715
 transfer_pw2rs_30                  252 12.0    1.108    1.259    5.662    7.251
 gspace_mixing                       71  5.0    0.093    0.132    6.612    6.613
 pw_integral_ab_c1d_c1d_gs          252 10.4    0.689    0.799    2.670    6.011
 calc_screening_functions             1 10.0    4.992    5.100    5.596    5.706
 transfer_rs2pw_90                  254 11.8    1.089    1.339    4.774    5.208
 rs_grid_zero                      1263 11.9    4.311    4.751    4.311    4.751
 pw_derive                         2271 11.8    3.826    4.153    3.826    4.153
 transfer_rs2pw_30                  254 11.8    1.422    1.663    3.528    3.942
 calculate_vxc_atom                  72  8.0    0.037    0.298    3.888    3.889
 pw_copy                           3425 11.0    3.210    3.662    3.210    3.662
 pw_gather_p                       2530 13.4    2.770    3.275    2.770    3.275
 update_ks_atom                     252  8.7    0.085    0.194    2.364    3.258
 mp_bcast_dm                       7560  9.7    2.279    3.210    2.279    3.210
 mp_sendrecv_dv                   97028 12.8    2.777    3.117    2.777    3.117
 pw_scatter_p                      2596 12.8    2.750    3.056    2.750    3.056
 broyden_mixing                      71  6.0    2.888    2.932    2.998    3.044
 calculate_rho_atom_coeff           254  8.8    0.149    0.377    2.963    2.966
 grid_integrate_task_list           252 10.0    0.307    2.891    0.307    2.891
 cp_dbcsr_sm_fm_multiply           1126  8.6    0.013    0.016    2.689    2.849
 rs_gather_matrices                 252 10.0    0.005    0.029    0.919    2.709
 pw_copy_to_array                  2530 13.4    1.860    2.647    1.860    2.647
 mp_max_i                           744  5.0    1.087    2.576    1.087    2.576
 parallel_gemm_fm                  1656  8.3    0.001    0.002    2.401    2.486
 parallel_gemm_fm_cosma            1656  9.3    2.400    2.485    2.400    2.485
 pw_poisson_set                     253 10.4    0.005    0.006    2.318    2.409
 xc_functional_eval                1585 10.9    0.001    0.003    0.977    1.930
 pbe_lda_eval                      1585 11.9    0.976    1.927    0.976    1.927
 dbcsr_multiply_generic            1558 10.3    0.038    0.040    1.813    1.895
 integrate_four_center_getP         432 10.8    0.102    0.131    1.384    1.781
 pw_axpy                           2708 10.8    1.418    1.671    1.418    1.671
 dbcsr_complete_redistribute       3753 10.5    0.095    0.146    1.473    1.656
 pw_zero                           2778 10.6    1.380    1.644    1.380    1.644
 qs_scf_new_mos                      72  5.0    0.001    0.001    1.555    1.606
 pw_copy_from_array                2596 12.8    1.035    1.342    1.035    1.342
 powell_optimize                 746995 11.0    1.089    1.334    1.089    1.334
 cp_dbcsr_sm_fm_multiply_core      1126  9.6    0.002    0.002    1.245    1.324
 eigensolver_symm                    72  6.0    0.006    0.007    1.231    1.250
 tddfpt_print_nto_analysis            1  6.0    0.002    0.002    1.246    1.246
 transfer_rs2pw_10                  254 11.8    0.419    0.532    1.090    1.221
 cp_fm_diag_elpa                    123  7.2    0.000    0.000    1.186    1.195
 fft_wrap_pw1pw2_30                 506 11.9    0.013    0.016    0.959    1.179
 mp_alltoall_i22                   4974 11.4    0.927    1.131    0.927    1.131
 copy_fm_to_dbcsr                  2531  9.6    0.007    0.008    0.907    1.097
 mp_alltoall_z11v                  1012 14.9    0.903    1.093    0.903    1.093
 cp_fm_diag_elpa_base               123  8.3    0.674    1.049    0.685    1.070
 transfer_pw2rs_10                  252 12.0    0.292    0.325    0.955    1.054
 calc_pair_dist_radii                 1 10.0    0.455    0.459    0.941    1.048
 integrate_four_center_dist_KS      432 10.8    0.078    0.101    1.041    1.046
 calculate_rho0_atom               1012  9.7    0.959    1.000    0.959    1.000
 copy_dbcsr_to_fm                  1220  9.3    0.009    0.010    0.892    0.985
 mp_irecv_dm3                     10126 12.8    0.245    0.859    0.245    0.859
 multiply_cannon                   1558 11.3    0.092    0.106    0.752    0.844
 cp_fm_redistribute_end             123  8.2    0.418    0.810    0.426    0.816
 mp_rank_compare                   5126 14.1    0.736    0.816    0.736    0.816
 pw_poisson_rebuild                 252 10.4    0.000    0.000    0.764    0.799
 ps_wavelet_create                    1 10.0    0.000    0.000    0.764    0.799
 RS_z_slice_distribution              1 11.0    0.193    0.216    0.764    0.799
 cp_dbcsr_plus_fm_fm_t              252  8.4    0.002    0.002    0.758    0.777
 mp_sum_l                          5970 10.6    0.647    0.743    0.647    0.743
 prepare_dr1dr                     1260 11.1    0.555    0.729    0.555    0.729
 tddfpt_orthonormalize_psi1_psi      10  6.9    0.010    0.011    0.701    0.702
 mp_isendrecv_dv                 261288 12.3    0.178    0.665    0.178    0.665
 xz_to_yz                           508 13.8    0.027    0.034    0.533    0.608
 multiply_cannon_loop              1558 12.3    0.098    0.101    0.519    0.607
 tddfpt_compute_residual_vects        8  7.0    0.000    0.000    0.600    0.600
 cp_fm_geeig                         20  7.0    0.001    0.001    0.577    0.579
 yz_to_xz                           504 14.0    0.034    0.047    0.431    0.564
 fft_wrap_pw1pw2_10                 506 11.9    0.004    0.005    0.431    0.534
 make_m2s                          3116 11.3    0.028    0.029    0.480    0.509
 offload_free_buffer                260 10.2    0.365    0.505    0.365    0.505
 tddfpt_construct_ground_state_       1  6.0    0.000    0.000    0.468    0.478
 make_images                       3116 12.3    0.081    0.083    0.412    0.441
 init_scf_run                         1  3.0    0.000    0.000    0.422    0.422
 qs_energies_init_hamiltonians        1  3.0    0.000    0.000    0.421    0.421
 build_core_hamiltonian_matrix        1  4.0    0.000    0.000    0.417    0.417
 overlap_condnum                      1  5.0    0.000    0.000    0.414    0.416
 scf_env_initial_rho_setup            1  4.0    0.000    0.000    0.406    0.406
 tddfpt_apply_energy_diff             9  8.0    0.000    0.000    0.383    0.383
 arnoldi_conjugate_gradient           5  6.0    0.009    0.010    0.380    0.380
 xc_2nd_deriv_of_r                 1080 10.0    0.002    0.043    0.011    0.376
 cp_fm_trace_a1b1t1_aa            16500  8.0    0.028    0.031    0.352    0.356
 mp_isend_dv                     146570 13.6    0.171    0.344    0.171    0.344
 dbcsr_desymmetrize_deep           1221 10.3    0.017    0.022    0.232    0.309
 integrate_four_center_load         432 10.8    0.001    0.001    0.198    0.298
 hfx_load_balance                     1 11.0    0.000    0.000    0.198    0.298
 scale_and_distribute               504 11.4    0.195    0.291    0.195    0.291
 hfx_load_balance_range               1 12.0    0.000    0.000    0.186    0.286
 multiply_cannon_metrocomm3       37392 13.3    0.052    0.055    0.165    0.274
 tddfpt_orthogonalize_psi1_psi0      10  6.9    0.000    0.000    0.242    0.263
 dbcsr_sym_matrix_vector_mult      2875  7.0    0.020    0.022    0.216    0.238
 calculate_dm_sparse                 72  6.0    0.000    0.000    0.225    0.236
 make_images_sizes                 3116 13.3    0.002    0.002    0.214    0.231
 mp_alltoall_i44                   3116 14.3    0.212    0.229    0.212    0.229
 mp_cart_sub                       2444 11.3    0.212    0.214    0.212    0.214
 mp_alltoall_i11v                 12480 11.5    0.080    0.191    0.080    0.191
 mp_cart_create                    2233 10.6    0.164    0.181    0.167    0.183
 cube_transpose_2                   508 13.8    0.009    0.011    0.099    0.174
 mp_irecv_dv                     145850 13.6    0.084    0.174    0.084    0.174
 dbcsr_finalize                   11809 11.4    0.020    0.034    0.119    0.169
 create_kernel_env                    1  6.0    0.000    0.000    0.149    0.167
 xc_prep_2nd_deriv                    1  7.0    0.000    0.000    0.149    0.167
 create_qs_kind_set                   1  2.0    0.000    0.000    0.165    0.166
 read_qs_kind                         4  3.0    0.066    0.087    0.165    0.166
 tddfpt_is_nonorthogonal_psi1_p       8  7.0    0.000    0.000    0.151    0.151
 pw_scale                           648  9.5    0.106    0.149    0.106    0.149
 multiply_cannon_metrocomm1       37392 13.3    0.020    0.021    0.054    0.146
 cube_transpose_1                   504 14.0    0.008    0.013    0.079    0.144
 cp_fm_triangular_invert             20  8.0    0.133    0.134    0.133    0.134
 rs_grid_create                     258 10.3    0.001    0.003    0.022    0.132
 qs_init_subsys                       1  2.0    0.002    0.002    0.130    0.130
 offload_create_buffer              260 11.3    0.020    0.130    0.020    0.130
 cp_fm_cholesky_decompose            20  8.0    0.127    0.129    0.127    0.129
 multiply_cannon_metrocomm4       35834 13.3    0.054    0.062    0.097    0.128
 dbcsr_merge_all                   9967 12.4    0.054    0.094    0.078    0.119
 qs_env_setup                         1  3.0    0.000    0.000    0.118    0.119
 qs_env_rebuild_pw_env                2  3.5    0.000    0.000    0.117    0.118
 pw_env_rebuild                       1  5.0    0.000    0.000    0.117    0.118
 vxc_of_r_new                       432  9.0    0.000    0.009    0.003    0.116
 multiply_cannon_multrec          37392 13.3    0.022    0.112    0.026    0.115
 multiply_cannon_metrocomm2       32718 13.3    0.048    0.056    0.080    0.114
 dbcsr_create_new                 40126 11.1    0.068    0.090    0.092    0.114
 mp_allgather_i34                  1558 12.3    0.093    0.111    0.093    0.111
 dbcsr_rep_row_to_rep_col_vec      2875  8.0    0.007    0.008    0.053    0.106
 parser_read_line                 27136  4.0    0.004    0.005    0.100    0.101
 parser_read_line_low                39  5.0    0.003    0.024    0.095    0.096
 cp_fm_redistribute_start           123  8.2    0.055    0.064    0.075    0.096
 dbcsr_col_vec_to_rep_row          2875  8.0    0.009    0.010    0.065    0.095
 broadcast_input_information         39  6.0    0.012    0.012    0.093    0.094
 scf_post_calculation_gpw             1  3.0    0.000    0.000    0.094    0.094
 write_available_results              1  4.0    0.000    0.000    0.094    0.094
 write_mo_free_results                1  5.0    0.002    0.003    0.094    0.094
 dbcsr_add_d                       4367  7.0    0.002    0.002    0.016    0.090
 dbcsr_add_anytype                 4367  8.0    0.003    0.012    0.014    0.088
 write_mo_set_to_restart             72  5.0    0.001    0.040    0.038    0.083
 pw_grid_setup                        4  6.0    0.000    0.000    0.082    0.083
 pw_grid_setup_internal               4  7.0    0.001    0.002    0.082    0.083
 make_images_data                  3116 13.3    0.019    0.025    0.051    0.081
 mp_bcast_b_src                     195  7.8    0.071    0.078    0.071    0.078
 external_control                    72  5.0    0.000    0.068    0.070    0.070
 cp_fm_write_unformatted             24  7.0    0.068    0.069    0.068    0.069
 cp_fm_triangular_multiply           60  8.0    0.067    0.069    0.067    0.069
 mp_bcast_i_src                     156  7.0    0.053    0.066    0.053    0.066
 rs_scatter_matrices                254  9.8    0.002    0.005    0.009    0.066
 cp_fm_symm                          72  7.0    0.060    0.064    0.060    0.064
 dbcsr_iterator_start             59789 10.3    0.038    0.045    0.048    0.060
 copy_fm_to_dbcsr_bc               2531 10.6    0.014    0.016    0.048    0.055
 mp_bcast_dv                       2952  9.0    0.037    0.054    0.037    0.054
 tddfpt_compute_ritz_vects            9  7.0    0.004    0.004    0.053    0.054
 hybrid_alltoall_any               4337 13.5    0.019    0.023    0.033    0.053
 dbcsr_copy                       15364  8.4    0.022    0.024    0.046    0.050
 pw_grid_sort                         4  8.0    0.035    0.035    0.048    0.049
 write_mo_set_low                     4  6.0    0.000    0.000    0.037    0.043
 -------------------------------------------------------------------------------

 The number of warnings for this run is : 1
 
 -------------------------------------------------------------------------------
  **** **** ******  **  PROGRAM ENDED AT                 2025-03-27 12:10:54.282
 ***** ** ***  *** **   PROGRAM RAN ON                     n2cn0552.ab2021.local
 **    ****   ******    PROGRAM RAN BY                                  metdyn02
 ***** **    ** ** **   PROGRAM PROCESS ID                               3142055
  **** **  *******  **  PROGRAM STOPPED IN /scratch/hpc-prf-metdyn/metdyn02_Remi
                                           /10_MOL/05_MOL/aUKBqsEOTmq69kFe5R_nOg
                                           /5k_set_final_qzvp/EWOBUO/DZVP/TDDFT/
                                           1e-4
