 DBCSR| CPU Multiplication driver                                           BLAS (U)
 DBCSR| Multrec recursion limit                                              512 (U)
 DBCSR| Multiplication stack size                                           1000 (D)
 DBCSR| Maximum elements for images                                    UNLIMITED (U)
 DBCSR| Multiplicative factor virtual images                                   1 (U)
 DBCSR| Use multiplication densification                                       T (D)
 DBCSR| Multiplication size stacks                                             3 (U)
 DBCSR| Use memory pool for CPU allocation                                     F (U)
 DBCSR| Number of 3D layers                                               SINGLE (U)
 DBCSR| Use MPI memory allocation                                              F (U)
 DBCSR| Use RMA algorithm                                                      F (U)
 DBCSR| Use Communication thread                                               T (U)
 DBCSR| Communication thread load                                             75 (D)
 DBCSR| MPI: My process id                                                     0
 DBCSR| MPI: Number of processes                                             216
 DBCSR| OMP: Current number of threads                                         4
 DBCSR| OMP: Max number of threads                                             4
 DBCSR| Split modifier for TAS multiplication algorithm                  1.0E+00 (U)


  **** **** ******  **  PROGRAM STARTED AT               2025-04-11 10:09:02.039
 ***** ** ***  *** **   PROGRAM STARTED ON                          i05r08c03s11
 **    ****   ******    PROGRAM STARTED BY                               di38fab
 ***** **    ** ** **   PROGRAM PROCESS ID                                744639
  **** **  *******  **  PROGRAM STARTED IN /hppfs/scratch/04/di38fab/07_MOL_non_
                                           aug/05_MOL_non_aug/05_MOL/W4-11+ALK/c
                                           s2/cc-pVQZ/GW+BSE

 CP2K| version string:                 CP2K version 2025.1 (Development Version)
 CP2K| source code revision number:                             unknown revision
 CP2K| cp2kflags: omp libint fftw3 libxc parallel scalapack max_contr=4         
 CP2K| is freely available from                            https://www.cp2k.org/
 CP2K| Program compiled at                         Thu Apr 10 16:20:23 CEST 2025
 CP2K| Program compiled on                                               login01
 CP2K| Program compiled for                                        Supermuc-foss
 CP2K| Data directory path                  /hppfs/work/pn36zo/di38fab/cp2k/data
 CP2K| Input file name                                                    GW.inp

 GLOBAL| Force Environment number                                              1
 GLOBAL| Basis set file name            /hppfs/scratch/04/di38fab/04_TMD/BASIS_A
 GLOBAL| Potential file name            /hppfs/work/pn36zo/di38fab/cp2k/data/ALL
 GLOBAL| MM Potential file name                                     MM_POTENTIAL
 GLOBAL| Coordinate file name                                      __STD_INPUT__
 GLOBAL| Method name                                                        CP2K
 GLOBAL| Project name                                                       MoS2
 GLOBAL| Run type                                                         ENERGY
 GLOBAL| FFT library                                                       FFTW3
 GLOBAL| Diagonalization library                                       ScaLAPACK
 GLOBAL| DGEMM library                                                      BLAS
 GLOBAL| Orthonormality check for eigenvectors                          DISABLED
 GLOBAL| Matrix multiplication library                                 ScaLAPACK
 GLOBAL| All-to-all communication in single precision                          F
 GLOBAL| FFTs using library dependent lengths                                  F
 GLOBAL| Grid backend                                                       AUTO
 GLOBAL| Global print level                                               MEDIUM
 GLOBAL| MPI I/O enabled                                                       T
 GLOBAL| Total number of message passing processes                           216
 GLOBAL| Number of threads for this process                                    4
 GLOBAL| This output is from process                                           0
 GLOBAL| OpenMP stack size per thread (OMP_STACKSIZE)                    default
 GLOBAL| CPU model name             Intel(R) Xeon(R) Platinum 8174 CPU @ 3.10GHz

 MEMORY| system memory details [Kb]
 MEMORY|                        rank 0           min           max       average
 MEMORY| MemTotal             98436664      98436604      98436708      98436663
 MEMORY| MemFree              83805432      83775484      84927736      84174323
 MEMORY| Buffers                     0             0             0             0
 MEMORY| Cached                2421304       2393060       2423296       2411869
 MEMORY| Slab                  1240472       1090740       1254852       1210846
 MEMORY| SReclaimable           272368        244852        283596        269825
 MEMORY| MemLikelyFree        86499104      86472196      87565872      86856018


 *** Fundamental physical constants (SI units) ***

 *** Literature: B. J. Mohr and B. N. Taylor,
 ***             CODATA recommended values of the fundamental physical
 ***             constants: 2006, Web Version 5.1
 ***             http://physics.nist.gov/constants

 Speed of light in vacuum [m/s]                             2.99792458000000E+08
 Magnetic constant or permeability of vacuum [N/A**2]       1.25663706143592E-06
 Electric constant or permittivity of vacuum [F/m]          8.85418781762039E-12
 Planck constant (h) [J*s]                                  6.62606896000000E-34
 Planck constant (h-bar) [J*s]                              1.05457162825177E-34
 Elementary charge [C]                                      1.60217648700000E-19
 Electron mass [kg]                                         9.10938215000000E-31
 Electron g factor [ ]                                     -2.00231930436220E+00
 Proton mass [kg]                                           1.67262163700000E-27
 Fine-structure constant                                    7.29735253760000E-03
 Rydberg constant [1/m]                                     1.09737315685270E+07
 Avogadro constant [1/mol]                                  6.02214179000000E+23
 Boltzmann constant [J/K]                                   1.38065040000000E-23
 Atomic mass unit [kg]                                      1.66053878200000E-27
 Bohr radius [m]                                            5.29177208590000E-11

 *** Conversion factors ***

 [u] -> [a.u.]                                              1.82288848426455E+03
 [Angstrom] -> [Bohr] = [a.u.]                              1.88972613288564E+00
 [a.u.] = [Bohr] -> [Angstrom]                              5.29177208590000E-01
 [a.u.] -> [s]                                              2.41888432650478E-17
 [a.u.] -> [fs]                                             2.41888432650478E-02
 [a.u.] -> [J]                                              4.35974393937059E-18
 [a.u.] -> [N]                                              8.23872205491840E-08
 [a.u.] -> [K]                                              3.15774647902944E+05
 [a.u.] -> [kJ/mol]                                         2.62549961709828E+03
 [a.u.] -> [kcal/mol]                                       6.27509468713739E+02
 [a.u.] -> [Pa]                                             2.94210107994716E+13
 [a.u.] -> [bar]                                            2.94210107994716E+08
 [a.u.] -> [atm]                                            2.90362800883016E+08
 [a.u.] -> [eV]                                             2.72113838565563E+01
 [a.u.] -> [Hz]                                             6.57968392072181E+15
 [a.u.] -> [1/cm] (wave numbers)                            2.19474631370540E+05
 [a.u./Bohr**2] -> [1/cm]                                   5.14048714338585E+03
 

 CELL_TOP| Volume [angstrom^3]:                                     27000.000000
 CELL_TOP| Vector a [angstrom    30.000     0.000     0.000   |a| =    30.000000
 CELL_TOP| Vector b [angstrom     0.000    30.000     0.000   |b| =    30.000000
 CELL_TOP| Vector c [angstrom     0.000     0.000    30.000   |c| =    30.000000
 CELL_TOP| Angle (b,c), alpha [degree]:                                90.000000
 CELL_TOP| Angle (a,c), beta  [degree]:                                90.000000
 CELL_TOP| Angle (a,b), gamma [degree]:                                90.000000
 CELL_TOP| Numerically orthorhombic:                                         YES
 CELL_TOP| Periodicity                                                      NONE

 GENERATE|  Preliminary Number of Bonds generated:                             0
 GENERATE|  Achieved consistency in connectivity generation.

 CELL| Volume [angstrom^3]:                                         27000.000000
 CELL| Vector a [angstrom]:      30.000     0.000     0.000   |a| =    30.000000
 CELL| Vector b [angstrom]:       0.000    30.000     0.000   |b| =    30.000000
 CELL| Vector c [angstrom]:       0.000     0.000    30.000   |c| =    30.000000
 CELL| Angle (b,c), alpha [degree]:                                    90.000000
 CELL| Angle (a,c), beta  [degree]:                                    90.000000
 CELL| Angle (a,b), gamma [degree]:                                    90.000000
 CELL| Numerically orthorhombic:                                             YES
 CELL| Periodicity                                                          NONE

 CELL_REF| Volume [angstrom^3]:                                     27000.000000
 CELL_REF| Vector a [angstrom    30.000     0.000     0.000   |a| =    30.000000
 CELL_REF| Vector b [angstrom     0.000    30.000     0.000   |b| =    30.000000
 CELL_REF| Vector c [angstrom     0.000     0.000    30.000   |c| =    30.000000
 CELL_REF| Angle (b,c), alpha [degree]:                                90.000000
 CELL_REF| Angle (a,c), beta  [degree]:                                90.000000
 CELL_REF| Angle (a,b), gamma [degree]:                                90.000000
 CELL_REF| Numerically orthorhombic:                                         YES
 CELL_REF| Periodicity                                                      NONE

 *******************************************************************************
 *******************************************************************************
 **                                                                           **
 **     #####                         ##              ##                      **
 **    ##   ##            ##          ##              ##                      **
 **   ##     ##                       ##            ######                    **
 **   ##     ##  ##   ##  ##   #####  ##  ##   ####   ##    #####    #####    **
 **   ##     ##  ##   ##  ##  ##      ## ##   ##      ##   ##   ##  ##   ##   **
 **   ##  ## ##  ##   ##  ##  ##      ####     ###    ##   ######   ######    **
 **    ##  ###   ##   ##  ##  ##      ## ##      ##   ##   ##       ##        **
 **     #######   #####   ##   #####  ##  ##  ####    ##    #####   ##        **
 **           ##                                                    ##        **
 **                                                                           **
 **                                                ... make the atoms dance   **
 **                                                                           **
 **            Copyright (C) by CP2K developers group (2000-2025)             **
 **                      J. Chem. Phys. 152, 194103 (2020)                    **
 **                                                                           **
 *******************************************************************************

 DFT| Spin restricted Kohn-Sham (RKS) calculation                            RKS
 DFT| Multiplicity                                                             1
 DFT| Number of spin states                                                    1
 DFT| Charge                                                                   0
 DFT| Self-interaction correction (SIC)                                       NO
 DFT| Cutoffs: density                                              1.000000E-10
 DFT|          gradient                                             1.000000E-10
 DFT|          tau                                                  1.000000E-10
 DFT|          cutoff_smoothing_range                               0.000000E+00
 DFT| XC density smoothing                                                  NONE
 DFT| XC derivatives                                                          PW

 FUNCTIONAL| PBE:
 FUNCTIONAL| J.P.Perdew, K.Burke, M.Ernzerhof, Phys. Rev. Letter, vol. 77, n 18,
 FUNCTIONAL|  pp. 3865-3868, (1996)sx=0.750sc=1.000{spin unpolarized}           


 QS| Method:                                                                GAPW
 QS| Density plane wave grid type                        NON-SPHERICAL FULLSPACE
 QS| Number of grid levels:                                                    4
 QS| Density cutoff [a.u.]:                                                250.0
 QS| Multi grid cutoff [a.u.]: 1) grid level                               250.0
 QS|                           2) grid level                                83.3
 QS|                           3) grid level                                27.8
 QS|                           4) grid level                                 9.3
 QS| Grid level progression factor:                                          3.0
 QS| Relative density cutoff [a.u.]:                                        50.0
 QS| Interaction thresholds: eps_pgf_orb:                                1.0E-12
 QS|                         eps_filter_matrix:                          0.0E+00
 QS|                         eps_core_charge:                            1.0E-14
 QS|                         eps_rho_gspace:                             1.0E-12
 QS|                         eps_rho_rspace:                             1.0E-12
 QS|                         eps_gvg_rspace:                             1.0E-06
 QS|                         eps_ppl:                                    1.0E-02
 QS|                         eps_ppnl:                                   1.0E-08
 QS| GAPW|      One center basis from orbital basis primitives
 QS| GAPW|                   eps_fit:                                    1.0E-04
 QS| GAPW|                   eps_iso:                                    1.0E-12
 QS| GAPW|                   eps_svd:                                    1.0E-08
 QS| GAPW|                   eps_cpc:                                    1.0E-12
 QS| GAPW|   atom-r-grid: quadrature:                                     GC_LOG
 QS| GAPW|      atom-s-grid:  max l :                                          8
 QS| GAPW|      max_l_rho0 :                                                   2


 ATOMIC KIND INFORMATION

  1. Atomic kind: C                                     Number of atoms:       1

     Orbital Basis Set                                                   cc-pVQZ

       Number of orbital shell sets:                                           5
       Number of orbital shells:                                              15
       Number of primitive Cartesian functions:                               24
       Number of Cartesian basis functions:                                   70
       Number of spherical basis functions:                                   55
       Norm type:                                                              2

       Normalised Cartesian orbitals:

                        Set   Shell   Orbital            Exponent    Coefficient

                          1       1    1px              34.510000       0.000000
                                                         7.915000       0.000000
                                                         2.368000       0.000000
                                                         0.813200       1.100745
                                                         0.289000       0.000000
                                                         0.100700       0.000000
                          1       1    1py              34.510000       0.000000
                                                         7.915000       0.000000
                                                         2.368000       0.000000
                                                         0.813200       1.100745
                                                         0.289000       0.000000
                                                         0.100700       0.000000
                          1       1    1pz              34.510000       0.000000
                                                         7.915000       0.000000
                                                         2.368000       0.000000
                                                         0.813200       1.100745
                                                         0.289000       0.000000
                                                         0.100700       0.000000

                          1       2    2px              34.510000       0.641198
                                                         7.915000       0.683747
                                                         2.368000       0.596637
                                                         0.813200       0.376620
                                                         0.289000       0.140105
                                                         0.100700       0.020217
                          1       2    2py              34.510000       0.641198
                                                         7.915000       0.683747
                                                         2.368000       0.596637
                                                         0.813200       0.376620
                                                         0.289000       0.140105
                                                         0.100700       0.020217
                          1       2    2pz              34.510000       0.641198
                                                         7.915000       0.683747
                                                         2.368000       0.596637
                                                         0.813200       0.376620
                                                         0.289000       0.140105
                                                         0.100700       0.020217

                          1       3    3px              34.510000       0.000000
                                                         7.915000       0.000000
                                                         2.368000       0.000000
                                                         0.813200       0.000000
                                                         0.289000       0.302039
                                                         0.100700       0.000000
                          1       3    3py              34.510000       0.000000
                                                         7.915000       0.000000
                                                         2.368000       0.000000
                                                         0.813200       0.000000
                                                         0.289000       0.302039
                                                         0.100700       0.000000
                          1       3    3pz              34.510000       0.000000
                                                         7.915000       0.000000
                                                         2.368000       0.000000
                                                         0.813200       0.000000
                                                         0.289000       0.302039
                                                         0.100700       0.000000

                          1       4    4px              34.510000       0.000000
                                                         7.915000       0.000000
                                                         2.368000       0.000000
                                                         0.813200       0.000000
                                                         0.289000       0.000000
                                                         0.100700       0.080859
                          1       4    4py              34.510000       0.000000
                                                         7.915000       0.000000
                                                         2.368000       0.000000
                                                         0.813200       0.000000
                                                         0.289000       0.000000
                                                         0.100700       0.080859
                          1       4    4pz              34.510000       0.000000
                                                         7.915000       0.000000
                                                         2.368000       0.000000
                                                         0.813200       0.000000
                                                         0.289000       0.000000
                                                         0.100700       0.080859

                          2       1    1s            33980.000000       0.162319
                                                      5089.000000       0.302313
                                                      1157.000000       0.522143
                                                       326.600000       0.841034
                                                       106.100000       1.247069
                                                        38.110000       1.607436
                                                        14.750000       1.639463
                                                         6.035000       1.095889
                                                         2.530000       0.310322
                                                         0.735500       0.008997
                                                         0.290500      -0.000870
                                                         0.111100       0.000134

                          2       2    2s            33980.000000       0.000000
                                                      5089.000000       0.000000
                                                      1157.000000       0.000000
                                                       326.600000       0.000000
                                                       106.100000       0.000000
                                                        38.110000       0.000000
                                                        14.750000       0.000000
                                                         6.035000       0.000000
                                                         2.530000       0.000000
                                                         0.735500       0.566040
                                                         0.290500       0.000000
                                                         0.111100       0.000000

                          2       3    3s            33980.000000       0.000000
                                                      5089.000000       0.000000
                                                      1157.000000       0.000000
                                                       326.600000       0.000000
                                                       106.100000       0.000000
                                                        38.110000       0.000000
                                                        14.750000       0.000000
                                                         6.035000       0.000000
                                                         2.530000       0.000000
                                                         0.735500       0.000000
                                                         0.290500       0.282013
                                                         0.111100       0.000000

                          2       4    4s            33980.000000      -0.033891
                                                      5089.000000      -0.064843
                                                      1157.000000      -0.110989
                                                       326.600000      -0.182005
                                                       106.100000      -0.271236
                                                        38.110000      -0.373428
                                                        14.750000      -0.413970
                                                         6.035000      -0.388287
                                                         2.530000      -0.168734
                                                         0.735500       0.154985
                                                         0.290500       0.165404
                                                         0.111100       0.039147

                          2       5    5s            33980.000000       0.000000
                                                      5089.000000       0.000000
                                                      1157.000000       0.000000
                                                       326.600000       0.000000
                                                       106.100000       0.000000
                                                        38.110000       0.000000
                                                        14.750000       0.000000
                                                         6.035000       0.000000
                                                         2.530000       0.000000
                                                         0.735500       0.000000
                                                         0.290500       0.000000
                                                         0.111100       0.137150

                          3       1    1dx2              1.848000       4.821009
                                                         0.649000       0.000000
                                                         0.228000       0.000000
                          3       1    1dxy              1.848000       8.350232
                                                         0.649000       0.000000
                                                         0.228000       0.000000
                          3       1    1dxz              1.848000       8.350232
                                                         0.649000       0.000000
                                                         0.228000       0.000000
                          3       1    1dy2              1.848000       4.821009
                                                         0.649000       0.000000
                                                         0.228000       0.000000
                          3       1    1dyz              1.848000       8.350232
                                                         0.649000       0.000000
                                                         0.228000       0.000000
                          3       1    1dz2              1.848000       4.821009
                                                         0.649000       0.000000
                                                         0.228000       0.000000

                          3       2    2dx2              1.848000       0.000000
                                                         0.649000       0.772392
                                                         0.228000       0.000000
                          3       2    2dxy              1.848000       0.000000
                                                         0.649000       1.337822
                                                         0.228000       0.000000
                          3       2    2dxz              1.848000       0.000000
                                                         0.649000       1.337822
                                                         0.228000       0.000000
                          3       2    2dy2              1.848000       0.000000
                                                         0.649000       0.772392
                                                         0.228000       0.000000
                          3       2    2dyz              1.848000       0.000000
                                                         0.649000       1.337822
                                                         0.228000       0.000000
                          3       2    2dz2              1.848000       0.000000
                                                         0.649000       0.772392
                                                         0.228000       0.000000

                          3       3    3dx2              1.848000       0.000000
                                                         0.649000       0.000000
                                                         0.228000       0.123821
                          3       3    3dxy              1.848000       0.000000
                                                         0.649000       0.000000
                                                         0.228000       0.214465
                          3       3    3dxz              1.848000       0.000000
                                                         0.649000       0.000000
                                                         0.228000       0.214465
                          3       3    3dy2              1.848000       0.000000
                                                         0.649000       0.000000
                                                         0.228000       0.123821
                          3       3    3dyz              1.848000       0.000000
                                                         0.649000       0.000000
                                                         0.228000       0.214465
                          3       3    3dz2              1.848000       0.000000
                                                         0.649000       0.000000
                                                         0.228000       0.123821

                          4       1    1fx3              1.419000       3.235302
                                                         0.485000       0.000000
                          4       1    1fx2y             1.419000       7.234355
                                                         0.485000       0.000000
                          4       1    1fx2z             1.419000       7.234355
                                                         0.485000       0.000000
                          4       1    1fxy2             1.419000       7.234355
                                                         0.485000       0.000000
                          4       1    1fxyz             1.419000      12.530271
                                                         0.485000       0.000000
                          4       1    1fxz2             1.419000       7.234355
                                                         0.485000       0.000000
                          4       1    1fy3              1.419000       3.235302
                                                         0.485000       0.000000
                          4       1    1fy2z             1.419000       7.234355
                                                         0.485000       0.000000
                          4       1    1fyz2             1.419000       7.234355
                                                         0.485000       0.000000
                          4       1    1fz3              1.419000       3.235302
                                                         0.485000       0.000000

                          4       2    2fx3              1.419000       0.000000
                                                         0.485000       0.288984
                          4       2    2fx2y             1.419000       0.000000
                                                         0.485000       0.646187
                          4       2    2fx2z             1.419000       0.000000
                                                         0.485000       0.646187
                          4       2    2fxy2             1.419000       0.000000
                                                         0.485000       0.646187
                          4       2    2fxyz             1.419000       0.000000
                                                         0.485000       1.119229
                          4       2    2fxz2             1.419000       0.000000
                                                         0.485000       0.646187
                          4       2    2fy3              1.419000       0.000000
                                                         0.485000       0.288984
                          4       2    2fy2z             1.419000       0.000000
                                                         0.485000       0.646187
                          4       2    2fyz2             1.419000       0.000000
                                                         0.485000       0.646187
                          4       2    2fz3              1.419000       0.000000
                                                         0.485000       0.288984

                          5       1    1gx4              1.011000       1.146835
                          5       1    1gx3y             1.011000       3.034241
                          5       1    1gx3z             1.011000       3.034241
                          5       1    1gx2y2            1.011000       3.917189
                          5       1    1gx2yz            1.011000       6.784770
                          5       1    1gx2z2            1.011000       3.917189
                          5       1    1gxy3             1.011000       3.034241
                          5       1    1gxy2z            1.011000       6.784770
                          5       1    1gxyz2            1.011000       6.784770
                          5       1    1gxz3             1.011000       3.034241
                          5       1    1gy4              1.011000       1.146835
                          5       1    1gy3z             1.011000       3.034241
                          5       1    1gy2z2            1.011000       3.917189
                          5       1    1gyz3             1.011000       3.034241
                          5       1    1gz4              1.011000       1.146835

     RI Auxiliary Basis Set                                        cc-pVQZ-RIFIT

       Number of orbital shell sets:                                          30
       Number of orbital shells:                                              30
       Number of primitive Cartesian functions:                               30
       Number of Cartesian basis functions:                                  181
       Number of spherical basis functions:                                  132
       Norm type:                                                              2

       Normalised Cartesian orbitals:

                        Set   Shell   Orbital            Exponent    Coefficient

                          1       1    1px               0.245452       0.246262
                          1       1    1py               0.245452       0.246262
                          1       1    1pz               0.245452       0.246262

                          2       1    1s                0.249261       0.251421

                          3       1    1fx3              0.348633       0.137494
                          3       1    1fx2y             0.348633       0.307445
                          3       1    1fx2z             0.348633       0.307445
                          3       1    1fxy2             0.348633       0.307445
                          3       1    1fxyz             0.348633       0.532510
                          3       1    1fxz2             0.348633       0.307445
                          3       1    1fy3              0.348633       0.137494
                          3       1    1fy2z             0.348633       0.307445
                          3       1    1fyz2             0.348633       0.307445
                          3       1    1fz3              0.348633       0.137494

                          4       1    1dx2              0.352145       0.264955
                          4       1    1dxy              0.352145       0.458916
                          4       1    1dxz              0.352145       0.458916
                          4       1    1dy2              0.352145       0.264955
                          4       1    1dyz              0.352145       0.458916
                          4       1    1dz2              0.352145       0.264955

                          5       1    1s                0.489646       0.417178

                          6       1    1px               0.517168       0.625144
                          6       1    1py               0.517168       0.625144
                          6       1    1pz               0.517168       0.625144

                          7       1    1dx2              0.599456       0.672178
                          7       1    1dxy              0.599456       1.164246
                          7       1    1dxz              0.599456       1.164246
                          7       1    1dy2              0.599456       0.672178
                          7       1    1dyz              0.599456       1.164246
                          7       1    1dz2              0.599456       0.672178

                          8       1    1gx4              0.713257       0.439402
                          8       1    1gx3y             0.713257       1.162547
                          8       1    1gx3z             0.713257       1.162547
                          8       1    1gx2y2            0.713257       1.500842
                          8       1    1gx2yz            0.713257       2.599535
                          8       1    1gx2z2            0.713257       1.500842
                          8       1    1gxy3             0.713257       1.162547
                          8       1    1gxy2z            0.713257       2.599535
                          8       1    1gxyz2            0.713257       2.599535
                          8       1    1gxz3             0.713257       1.162547
                          8       1    1gy4              0.713257       0.439402
                          8       1    1gy3z             0.713257       1.162547
                          8       1    1gy2z2            0.713257       1.500842
                          8       1    1gyz3             0.713257       1.162547
                          8       1    1gz4              0.713257       0.439402

                          9       1    1fx3              0.729795       0.724697
                          9       1    1fx2y             0.729795       1.620471
                          9       1    1fx2z             0.729795       1.620471
                          9       1    1fxy2             0.729795       1.620471
                          9       1    1fxyz             0.729795       2.806738
                          9       1    1fxz2             0.729795       1.620471
                          9       1    1fy3              0.729795       0.724697
                          9       1    1fy2z             0.729795       1.620471
                          9       1    1fyz2             0.729795       1.620471
                          9       1    1fz3              0.729795       0.724697

                         10       1    1s                0.872371       0.643333

                         11       1    1dx2              1.031012       1.736286
                         11       1    1dxy              1.031012       3.007336
                         11       1    1dxz              1.031012       3.007336
                         11       1    1dy2              1.031012       1.736286
                         11       1    1dyz              1.031012       3.007336
                         11       1    1dz2              1.031012       1.736286

                         12       1    1px               1.053382       1.521151
                         12       1    1py               1.053382       1.521151
                         12       1    1pz               1.053382       1.521151

                         13       1    1gx4              1.349558       2.537826
                         13       1    1gx3y             1.349558       6.714456
                         13       1    1gx3z             1.349558       6.714456
                         13       1    1gx2y2            1.349558       8.668326
                         13       1    1gx2yz            1.349558      15.013981
                         13       1    1gx2z2            1.349558       8.668326
                         13       1    1gxy3             1.349558       6.714456
                         13       1    1gxy2z            1.349558      15.013981
                         13       1    1gxyz2            1.349558      15.013981
                         13       1    1gxz3             1.349558       6.714456
                         13       1    1gy4              1.349558       2.537826
                         13       1    1gy3z             1.349558       6.714456
                         13       1    1gy2z2            1.349558       8.668326
                         13       1    1gyz3             1.349558       6.714456
                         13       1    1gz4              1.349558       2.537826

                         14       1    1hx5              1.486936       2.693359
                         14       1    1hx4y             1.486936       8.080076
                         14       1    1hx4z             1.486936       8.080076
                         14       1    1hx3y2            1.486936      12.342519
                         14       1    1hx3yz            1.486936      21.377871
                         14       1    1hx3z2            1.486936      12.342519
                         14       1    1hx2y3            1.486936      12.342519
                         14       1    1hx2y2z           1.486936      27.598712
                         14       1    1hx2yz2           1.486936      27.598712
                         14       1    1hx2z3            1.486936      12.342519
                         14       1    1hxy4             1.486936       8.080076
                         14       1    1hxy3z            1.486936      21.377871
                         14       1    1hxy2z2           1.486936      27.598712
                         14       1    1hxyz3            1.486936      21.377871
                         14       1    1hxz4             1.486936       8.080076
                         14       1    1hy5              1.486936       2.693359
                         14       1    1hy4z             1.486936       8.080076
                         14       1    1hy3z2            1.486936      12.342519
                         14       1    1hy2z3            1.486936      12.342519
                         14       1    1hyz4             1.486936       8.080076
                         14       1    1hz5              1.486936       2.693359

                         15       1    1s                1.639209       1.032490

                         16       1    1px               1.688444       2.743459
                         16       1    1py               1.688444       2.743459
                         16       1    1pz               1.688444       2.743459

                         17       1    1fx3              1.738978       5.112301
                         17       1    1fx2y             1.738978      11.431452
                         17       1    1fx2z             1.738978      11.431452
                         17       1    1fxy2             1.738978      11.431452
                         17       1    1fxyz             1.738978      19.799856
                         17       1    1fxz2             1.738978      11.431452
                         17       1    1fy3              1.738978       5.112301
                         17       1    1fy2z             1.738978      11.431452
                         17       1    1fyz2             1.738978      11.431452
                         17       1    1fz3              1.738978       5.112301

                         18       1    1dx2              2.204215       6.563024
                         18       1    1dxy              2.204215      11.367491
                         18       1    1dxz              2.204215      11.367491
                         18       1    1dy2              2.204215       6.563024
                         18       1    1dyz              2.204215      11.367491
                         18       1    1dz2              2.204215       6.563024

                         19       1    1fx3              2.263014       9.246997
                         19       1    1fx2y             2.263014      20.676914
                         19       1    1fx2z             2.263014      20.676914
                         19       1    1fxy2             2.263014      20.676914
                         19       1    1fxyz             2.263014      35.813466
                         19       1    1fxz2             2.263014      20.676914
                         19       1    1fy3              2.263014       9.246997
                         19       1    1fy2z             2.263014      20.676914
                         19       1    1fyz2             2.263014      20.676914
                         19       1    1fz3              2.263014       9.246997

                         20       1    1gx4              2.812776      19.123049
                         20       1    1gx3y             2.812776      50.594833
                         20       1    1gx3z             2.812776      50.594833
                         20       1    1gx2y2            2.812776      65.317648
                         20       1    1gx2yz            2.812776     113.133486
                         20       1    1gx2z2            2.812776      65.317648
                         20       1    1gxy3             2.812776      50.594833
                         20       1    1gxy2z            2.812776     113.133486
                         20       1    1gxyz2            2.812776     113.133486
                         20       1    1gxz3             2.812776      50.594833
                         20       1    1gy4              2.812776      19.123049
                         20       1    1gy3z             2.812776      50.594833
                         20       1    1gy2z2            2.812776      65.317648
                         20       1    1gyz3             2.812776      50.594833
                         20       1    1gz4              2.812776      19.123049

                         21       1    1px               3.590642       7.045394
                         21       1    1py               3.590642       7.045394
                         21       1    1pz               3.590642       7.045394

                         22       1    1s                4.179168       2.083183

                         23       1    1fx3              5.448411      66.766969
                         23       1    1fx2y             5.448411     149.295482
                         23       1    1fx2z             5.448411     149.295482
                         23       1    1fxy2             5.448411     149.295482
                         23       1    1fxyz             5.448411     258.587361
                         23       1    1fxz2             5.448411     149.295482
                         23       1    1fy3              5.448411      66.766969
                         23       1    1fy2z             5.448411     149.295482
                         23       1    1fyz2             5.448411     149.295482
                         23       1    1fz3              5.448411      66.766969

                         24       1    1dx2              5.640287      33.977119
                         24       1    1dxy              5.640287      58.850096
                         24       1    1dxz              5.640287      58.850096
                         24       1    1dy2              5.640287      33.977119
                         24       1    1dyz              5.640287      58.850096
                         24       1    1dz2              5.640287      33.977119

                         25       1    1s                9.171527       3.756136

                         26       1    1px              12.325982      32.920544
                         26       1    1py              12.325982      32.920544
                         26       1    1pz              12.325982      32.920544

                         27       1    1dx2             16.935434     232.703555
                         27       1    1dxy             16.935434     403.054381
                         27       1    1dxz             16.935434     403.054381
                         27       1    1dy2             16.935434     232.703555
                         27       1    1dyz             16.935434     403.054381
                         27       1    1dz2             16.935434     232.703555

                         28       1    1s               47.118566      12.817524

                         29       1    1px              49.862265     188.866569
                         29       1    1py              49.862265     188.866569
                         29       1    1pz              49.862265     188.866569

                         30       1    1s              221.309708      40.894080

       Atomic covalent radius [Angstrom]:                                  0.770

       Atomic van der Waals radius [Angstrom]:                             1.700

     The atoms of this atomic kind are PAW atoms (GAPW):
       Hard Gaussian function radius:                                      1.512
       Rho0 radius:                                                        1.512
       Maximum GTO radius used for PAW projector construction:            24.566

     GAPW Soft Basis Set                                            cc-pVQZ_soft

       Number of orbital shell sets:                                           5
       Number of orbital shells:                                              15
       Number of primitive Cartesian functions:                               14
       Number of Cartesian basis functions:                                   70
       Number of spherical basis functions:                                   55
       Norm type:                                                              2

       Normalised Cartesian orbitals:

                        Set   Shell   Orbital            Exponent    Coefficient

                          1       1    1px               2.368000       0.000000
                                                         0.813200       1.100745
                                                         0.289000       0.000000
                                                         0.100700       0.000000
                          1       1    1py               2.368000       0.000000
                                                         0.813200       1.100745
                                                         0.289000       0.000000
                                                         0.100700       0.000000
                          1       1    1pz               2.368000       0.000000
                                                         0.813200       1.100745
                                                         0.289000       0.000000
                                                         0.100700       0.000000

                          1       2    2px               2.368000       0.596637
                                                         0.813200       0.376620
                                                         0.289000       0.140105
                                                         0.100700       0.020217
                          1       2    2py               2.368000       0.596637
                                                         0.813200       0.376620
                                                         0.289000       0.140105
                                                         0.100700       0.020217
                          1       2    2pz               2.368000       0.596637
                                                         0.813200       0.376620
                                                         0.289000       0.140105
                                                         0.100700       0.020217

                          1       3    3px               2.368000       0.000000
                                                         0.813200       0.000000
                                                         0.289000       0.302039
                                                         0.100700       0.000000
                          1       3    3py               2.368000       0.000000
                                                         0.813200       0.000000
                                                         0.289000       0.302039
                                                         0.100700       0.000000
                          1       3    3pz               2.368000       0.000000
                                                         0.813200       0.000000
                                                         0.289000       0.302039
                                                         0.100700       0.000000

                          1       4    4px               2.368000       0.000000
                                                         0.813200       0.000000
                                                         0.289000       0.000000
                                                         0.100700       0.080859
                          1       4    4py               2.368000       0.000000
                                                         0.813200       0.000000
                                                         0.289000       0.000000
                                                         0.100700       0.080859
                          1       4    4pz               2.368000       0.000000
                                                         0.813200       0.000000
                                                         0.289000       0.000000
                                                         0.100700       0.080859

                          2       1    1s                2.530000       0.310322
                                                         0.735500       0.008997
                                                         0.290500      -0.000870
                                                         0.111100       0.000134

                          2       2    2s                2.530000       0.000000
                                                         0.735500       0.566040
                                                         0.290500       0.000000
                                                         0.111100       0.000000

                          2       3    3s                2.530000       0.000000
                                                         0.735500       0.000000
                                                         0.290500       0.282013
                                                         0.111100       0.000000

                          2       4    4s                2.530000      -0.168734
                                                         0.735500       0.154985
                                                         0.290500       0.165404
                                                         0.111100       0.039147

                          2       5    5s                2.530000       0.000000
                                                         0.735500       0.000000
                                                         0.290500       0.000000
                                                         0.111100       0.137150

                          3       1    1dx2              1.848000       4.821009
                                                         0.649000       0.000000
                                                         0.228000       0.000000
                          3       1    1dxy              1.848000       8.350232
                                                         0.649000       0.000000
                                                         0.228000       0.000000
                          3       1    1dxz              1.848000       8.350232
                                                         0.649000       0.000000
                                                         0.228000       0.000000
                          3       1    1dy2              1.848000       4.821009
                                                         0.649000       0.000000
                                                         0.228000       0.000000
                          3       1    1dyz              1.848000       8.350232
                                                         0.649000       0.000000
                                                         0.228000       0.000000
                          3       1    1dz2              1.848000       4.821009
                                                         0.649000       0.000000
                                                         0.228000       0.000000

                          3       2    2dx2              1.848000       0.000000
                                                         0.649000       0.772392
                                                         0.228000       0.000000
                          3       2    2dxy              1.848000       0.000000
                                                         0.649000       1.337822
                                                         0.228000       0.000000
                          3       2    2dxz              1.848000       0.000000
                                                         0.649000       1.337822
                                                         0.228000       0.000000
                          3       2    2dy2              1.848000       0.000000
                                                         0.649000       0.772392
                                                         0.228000       0.000000
                          3       2    2dyz              1.848000       0.000000
                                                         0.649000       1.337822
                                                         0.228000       0.000000
                          3       2    2dz2              1.848000       0.000000
                                                         0.649000       0.772392
                                                         0.228000       0.000000

                          3       3    3dx2              1.848000       0.000000
                                                         0.649000       0.000000
                                                         0.228000       0.123821
                          3       3    3dxy              1.848000       0.000000
                                                         0.649000       0.000000
                                                         0.228000       0.214465
                          3       3    3dxz              1.848000       0.000000
                                                         0.649000       0.000000
                                                         0.228000       0.214465
                          3       3    3dy2              1.848000       0.000000
                                                         0.649000       0.000000
                                                         0.228000       0.123821
                          3       3    3dyz              1.848000       0.000000
                                                         0.649000       0.000000
                                                         0.228000       0.214465
                          3       3    3dz2              1.848000       0.000000
                                                         0.649000       0.000000
                                                         0.228000       0.123821

                          4       1    1fx3              1.419000       3.235302
                                                         0.485000       0.000000
                          4       1    1fx2y             1.419000       7.234355
                                                         0.485000       0.000000
                          4       1    1fx2z             1.419000       7.234355
                                                         0.485000       0.000000
                          4       1    1fxy2             1.419000       7.234355
                                                         0.485000       0.000000
                          4       1    1fxyz             1.419000      12.530271
                                                         0.485000       0.000000
                          4       1    1fxz2             1.419000       7.234355
                                                         0.485000       0.000000
                          4       1    1fy3              1.419000       3.235302
                                                         0.485000       0.000000
                          4       1    1fy2z             1.419000       7.234355
                                                         0.485000       0.000000
                          4       1    1fyz2             1.419000       7.234355
                                                         0.485000       0.000000
                          4       1    1fz3              1.419000       3.235302
                                                         0.485000       0.000000

                          4       2    2fx3              1.419000       0.000000
                                                         0.485000       0.288984
                          4       2    2fx2y             1.419000       0.000000
                                                         0.485000       0.646187
                          4       2    2fx2z             1.419000       0.000000
                                                         0.485000       0.646187
                          4       2    2fxy2             1.419000       0.000000
                                                         0.485000       0.646187
                          4       2    2fxyz             1.419000       0.000000
                                                         0.485000       1.119229
                          4       2    2fxz2             1.419000       0.000000
                                                         0.485000       0.646187
                          4       2    2fy3              1.419000       0.000000
                                                         0.485000       0.288984
                          4       2    2fy2z             1.419000       0.000000
                                                         0.485000       0.646187
                          4       2    2fyz2             1.419000       0.000000
                                                         0.485000       0.646187
                          4       2    2fz3              1.419000       0.000000
                                                         0.485000       0.288984

                          5       1    1gx4              1.011000       1.146835
                          5       1    1gx3y             1.011000       3.034241
                          5       1    1gx3z             1.011000       3.034241
                          5       1    1gx2y2            1.011000       3.917189
                          5       1    1gx2yz            1.011000       6.784770
                          5       1    1gx2z2            1.011000       3.917189
                          5       1    1gxy3             1.011000       3.034241
                          5       1    1gxy2z            1.011000       6.784770
                          5       1    1gxyz2            1.011000       6.784770
                          5       1    1gxz3             1.011000       3.034241
                          5       1    1gy4              1.011000       1.146835
                          5       1    1gy3z             1.011000       3.034241
                          5       1    1gy2z2            1.011000       3.917189
                          5       1    1gyz3             1.011000       3.034241
                          5       1    1gz4              1.011000       1.146835

     AE Potential information for                                            ALL

       Description:                                       All-electron potential
                                          Krack, Parrinello, PCCP 2, 2105 (2000)

       Gaussian exponent of the core charge distribution:               4.109048
       Electronic configuration (s p d ...):                           4   2   0

  2. Atomic kind: S                                     Number of atoms:       2

     Orbital Basis Set                                                   cc-pVQZ

       Number of orbital shell sets:                                           5
       Number of orbital shells:                                              17
       Number of primitive Cartesian functions:                               33
       Number of Cartesian basis functions:                                   74
       Number of spherical basis functions:                                   59
       Norm type:                                                              2

       Normalised Cartesian orbitals:

                        Set   Shell   Orbital            Exponent    Coefficient

                          1       1    1px            1546.000000       6.096361
                                                       366.400000       8.627460
                                                       118.400000      11.042915
                                                        44.530000      12.167369
                                                        18.380000      10.704304
                                                         7.965000       6.710904
                                                         3.541000       2.621971
                                                         1.591000       0.435360
                                                         0.620500       0.011900
                                                         0.242000       0.000016
                                                         0.090140       0.000029
                          1       1    1py            1546.000000       6.096361
                                                       366.400000       8.627460
                                                       118.400000      11.042915
                                                        44.530000      12.167369
                                                        18.380000      10.704304
                                                         7.965000       6.710904
                                                         3.541000       2.621971
                                                         1.591000       0.435360
                                                         0.620500       0.011900
                                                         0.242000       0.000016
                                                         0.090140       0.000029
                          1       1    1pz            1546.000000       6.096361
                                                       366.400000       8.627460
                                                       118.400000      11.042915
                                                        44.530000      12.167369
                                                        18.380000      10.704304
                                                         7.965000       6.710904
                                                         3.541000       2.621971
                                                         1.591000       0.435360
                                                         0.620500       0.011900
                                                         0.242000       0.000016
                                                         0.090140       0.000029

                          1       2    2px            1546.000000       0.000000
                                                       366.400000       0.000000
                                                       118.400000       0.000000
                                                        44.530000       0.000000
                                                        18.380000       0.000000
                                                         7.965000       0.000000
                                                         3.541000       0.000000
                                                         1.591000       0.000000
                                                         0.620500       0.784996
                                                         0.242000       0.000000
                                                         0.090140       0.000000
                          1       2    2py            1546.000000       0.000000
                                                       366.400000       0.000000
                                                       118.400000       0.000000
                                                        44.530000       0.000000
                                                        18.380000       0.000000
                                                         7.965000       0.000000
                                                         3.541000       0.000000
                                                         1.591000       0.000000
                                                         0.620500       0.784996
                                                         0.242000       0.000000
                                                         0.090140       0.000000
                          1       2    2pz            1546.000000       0.000000
                                                       366.400000       0.000000
                                                       118.400000       0.000000
                                                        44.530000       0.000000
                                                        18.380000       0.000000
                                                         7.965000       0.000000
                                                         3.541000       0.000000
                                                         1.591000       0.000000
                                                         0.620500       0.784996
                                                         0.242000       0.000000
                                                         0.090140       0.000000

                          1       3    3px            1546.000000      -1.562979
                                                       366.400000      -2.190350
                                                       118.400000      -2.858551
                                                        44.530000      -3.158675
                                                        18.380000      -2.907508
                                                         7.965000      -1.831658
                                                         3.541000      -0.818282
                                                         1.591000       0.023514
                                                         0.620500       0.281689
                                                         0.242000       0.127217
                                                         0.090140       0.017521
                          1       3    3py            1546.000000      -1.562979
                                                       366.400000      -2.190350
                                                       118.400000      -2.858551
                                                        44.530000      -3.158675
                                                        18.380000      -2.907508
                                                         7.965000      -1.831658
                                                         3.541000      -0.818282
                                                         1.591000       0.023514
                                                         0.620500       0.281689
                                                         0.242000       0.127217
                                                         0.090140       0.017521
                          1       3    3pz            1546.000000      -1.562979
                                                       366.400000      -2.190350
                                                       118.400000      -2.858551
                                                        44.530000      -3.158675
                                                        18.380000      -2.907508
                                                         7.965000      -1.831658
                                                         3.541000      -0.818282
                                                         1.591000       0.023514
                                                         0.620500       0.281689
                                                         0.242000       0.127217
                                                         0.090140       0.017521

                          1       4    4px            1546.000000       0.000000
                                                       366.400000       0.000000
                                                       118.400000       0.000000
                                                        44.530000       0.000000
                                                        18.380000       0.000000
                                                         7.965000       0.000000
                                                         3.541000       0.000000
                                                         1.591000       0.000000
                                                         0.620500       0.000000
                                                         0.242000       0.241941
                                                         0.090140       0.000000
                          1       4    4py            1546.000000       0.000000
                                                       366.400000       0.000000
                                                       118.400000       0.000000
                                                        44.530000       0.000000
                                                        18.380000       0.000000
                                                         7.965000       0.000000
                                                         3.541000       0.000000
                                                         1.591000       0.000000
                                                         0.620500       0.000000
                                                         0.242000       0.241941
                                                         0.090140       0.000000
                          1       4    4pz            1546.000000       0.000000
                                                       366.400000       0.000000
                                                       118.400000       0.000000
                                                        44.530000       0.000000
                                                        18.380000       0.000000
                                                         7.965000       0.000000
                                                         3.541000       0.000000
                                                         1.591000       0.000000
                                                         0.620500       0.000000
                                                         0.242000       0.241941
                                                         0.090140       0.000000

                          1       5    5px            1546.000000       0.000000
                                                       366.400000       0.000000
                                                       118.400000       0.000000
                                                        44.530000       0.000000
                                                        18.380000       0.000000
                                                         7.965000       0.000000
                                                         3.541000       0.000000
                                                         1.591000       0.000000
                                                         0.620500       0.000000
                                                         0.242000       0.000000
                                                         0.090140       0.070402
                          1       5    5py            1546.000000       0.000000
                                                       366.400000       0.000000
                                                       118.400000       0.000000
                                                        44.530000       0.000000
                                                        18.380000       0.000000
                                                         7.965000       0.000000
                                                         3.541000       0.000000
                                                         1.591000       0.000000
                                                         0.620500       0.000000
[...]
 potential_pw2rs                     71 10.0    0.015    0.020    6.443    6.555
 xc_pw_divergence                    70 10.0    0.002    0.002    5.832    6.462
 transfer_pw2rs                     356 10.6    0.005    0.006    6.257    6.460
 prepare_gapw_den                    71  8.0    0.001    0.002    5.948    6.009
 x_to_yz                            633 12.9    0.716    0.834    5.627    5.933
 xc_rho_set_and_dset_create          70 10.0    0.148    0.184    5.285    5.519
 gspace_mixing                       69  5.0    0.150    0.160    5.474    5.483
 grid_collocate_task_list            71  7.0    4.174    5.170    4.174    5.170
 mp_waitany                       17976 11.5    4.461    5.167    4.461    5.167
 mp_alltoall_d11v                  1280  9.4    3.376    4.106    3.376    4.106
 transfer_rs2pw_250                 143 10.0    1.198    1.352    3.403    3.976
 broyden_mixing                      69  6.0    3.752    3.843    3.892    3.953
 parallel_gemm_fm                   360  8.5    0.001    0.001    3.831    3.937
 parallel_gemm_fm_gemm              360  9.5    0.001    0.001    3.831    3.936
 cp_fm_gemm                         360 10.5    3.830    3.936    3.830    3.936
 calculate_vxc_atom                  71  8.0    0.024    0.337    3.764    3.764
 transfer_pw2rs_250                 143 11.0    1.086    1.320    3.361    3.760
 mp_waitall_1                     74002 12.0    2.657    3.533    2.657    3.533
 put_rho0_on_grid                    71  9.0    0.158    0.177    3.344    3.406
 gaVxcgb_GC                          70  9.0    0.040    3.377    0.040    3.377
 powell_optimize                1154566 11.0    2.863    3.076    2.863    3.076
 cp_fm_syevd                         76  7.0    0.001    0.001    3.050    3.055
 cp_fm_redistribute_end              76  8.0    1.503    2.930    1.506    2.934
 cp_fm_syevd_base                    76  8.0    1.424    2.850    1.424    2.850
 integrate_vhg0_rspace               71  8.0    0.121    0.140    2.707    2.829
 rs_gather_matrices                  71 10.0    0.007    0.011    2.466    2.552
 grid_integrate_task_list            71 10.0    0.057    2.463    0.057    2.463
 calculate_rho_atom                 142  9.0    0.951    2.432    0.951    2.433
 qs_scf_new_mos                      70  5.0    0.001    0.001    2.341    2.359
 calc_pair_dist_radii                 1 10.0    0.605    0.627    1.868    1.973
 mp2_ri_gpw_compute_in                1  5.0    0.001    0.001    1.894    1.895
 mp2_ri_gpw_compute_in_loop           1  6.0    0.000    0.000    1.881    1.881
 contract_B_L                         4  7.0    0.002    0.003    1.776    1.857
 eigensolver_symm                    71  6.0    0.002    0.003    1.842    1.847
 mp_alltoall_d45                     72 10.0    0.838    1.665    0.838    1.665
 mp_sum_dv                        13582 12.1    1.567    1.648    1.567    1.648
 transfer_rs2pw_30                   71  9.0    0.671    0.701    1.541    1.587
 transfer_pw2rs_30                   71 12.0    0.652    0.706    1.487    1.570
 start_bse_calculation                1  7.0    0.000    0.001    1.544    1.544
 dbt_total                            8  8.0    0.000    0.000    1.406    1.406
 dbt_contract                         4  9.0    0.001    0.001    0.964    1.391
 fft_wrap_pw1pw2_90                 142 10.5    0.024    0.034    0.635    1.333
 create_qs_kind_set                   1  2.0    0.000    0.000    1.290    1.290
 read_qs_kind                         2  3.0    0.694    0.753    1.290    1.290
 mp_isendrecv_dv                  61060 12.0    0.592    1.277    0.592    1.277
 mp_sendrecv_dv                   30530 10.0    1.167    1.242    1.167    1.242
 cp2k_distribution_to_z_slices       71  9.0    0.326    0.354    0.828    1.234
 transfer_pw2rs_90                   71 12.0    0.207    0.246    0.931    1.161
 mp_cart_create                     383 10.3    0.994    1.096    0.994    1.097
 integrate_four_center_getP          71 10.0    0.025    0.029    1.078    1.096
 dbt_pgrid_create_expert             84 10.8    0.000    0.000    0.966    1.068
 pw_scatter_p                       775 12.1    0.984    1.038    0.984    1.038
 rs_grid_zero                       357 11.2    0.976    1.007    0.976    1.007
 integrate_four_center_dist_KS       71 10.0    0.026    0.030    1.001    1.004
 mp_sum_dm                          714  7.6    0.809    0.980    0.809    0.980
 xc_functional_eval                 210 11.0    0.001    0.001    0.825    0.979
 pbe_lda_eval                       210 12.0    0.824    0.979    0.824    0.979
 pw_gather_p                        707 11.8    0.800    0.940    0.800    0.940
 transfer_rs2pw_90                   71  9.0    0.204    0.246    0.725    0.822
 Vh_1c_gg_integrals                  71  8.0    0.010    0.265    0.324    0.802
 mp_sum_l                           915  6.0    0.581    0.792    0.581    0.792
 integrate_four_center_load          71 10.0    0.000    0.001    0.550    0.762
 hfx_load_balance                     1 11.0    0.000    0.000    0.549    0.761
 hfx_load_balance_range               1 12.0    0.000    0.000    0.531    0.743
 pw_derive                          633 11.3    0.674    0.731    0.674    0.731
 create_hermitian_form_of_ABBA        1  8.0    0.000    0.000    0.728    0.729
 diagonalize_C                        1  8.0    0.000    0.000    0.722    0.722
 cp_fm_power                          2  7.5    0.006    0.009    0.704    0.706
 dbt_copy                            12 10.2    0.000    0.001    0.109    0.674
 dbt_remap                            8 10.0    0.002    0.002    0.671    0.672
 dbt_reshape                          8 11.8    0.009    0.013    0.096    0.662
 mp_waitall_2                        52 15.6    0.084    0.649    0.084    0.649
 dbt_communicate_buffer               8 12.8    0.002    0.002    0.083    0.648
 dbt_nd_mp_comm                       8 11.0    0.000    0.000    0.620    0.642
 pw_integral_ab_c1d_c1d_gs           71  9.0    0.230    0.233    0.323    0.620
 compute_vec_Sigma_x_minus_vxc_       1  4.0    0.000    0.000    0.614    0.614
 mp_irecv_dm3                      2568 11.5    0.201    0.613    0.201    0.613
 mp_max_i                           589  2.9    0.187    0.604    0.187    0.604
 parser_read_line                148685  4.0    0.052    0.058    0.595    0.603
 pw_poisson_rebuild                  71  9.0    0.000    0.000    0.554    0.586
 ps_wavelet_create                    1 10.0    0.000    0.000    0.553    0.586
 RS_z_slice_distribution              1 11.0    0.498    0.537    0.553    0.586
 pw_copy                           1060 10.6    0.505    0.553    0.505    0.553
 parser_read_line_low               160  5.0    0.028    0.227    0.543    0.552
 broadcast_input_information        160  6.0    0.114    0.124    0.515    0.526
 transfer_pw2rs_10                   71 12.0    0.171    0.207    0.473    0.490
 transfer_rs2pw_10                   71  9.0    0.172    0.183    0.469    0.475
 mp_isend_dm3                      2568 11.5    0.193    0.452    0.193    0.452
 rpa_num_int_RPA_matrix_operati     100  7.0    0.001    0.003    0.444    0.445
 pw_poisson_set                      72  8.9    0.002    0.002    0.423    0.434
 mp_sum_i                            21  9.7    0.248    0.425    0.248    0.425
 restraint_control                    1  2.0    0.000    0.000    0.247    0.424
 mp2_main_alloc_hfx                   1  4.0    0.177    0.424    0.177    0.424
 fft_wrap_pw1pw2_30                 142 10.5    0.004    0.004    0.342    0.418
 mp2_eri_3c_integrate                 1  7.0    0.001    0.001    0.088    0.412
 integrate_set_3c                   450  8.0    0.079    0.373    0.087    0.411
 pw_copy_to_array                   707 11.8    0.291    0.381    0.291    0.381
 mp_rank_compare                   1482 12.9    0.351    0.359    0.351    0.359
 mp_alltoall_z11v                   284 13.5    0.307    0.359    0.307    0.359
 calculate_dm_sparse                 70  6.0    0.000    0.001    0.334    0.349
 cp_dbcsr_plus_fm_fm_t               70  7.0    0.001    0.001    0.333    0.347
 qs_energies_init_hamiltonians        1  3.0    0.000    0.000    0.314    0.314
 mp_bcast_i_src                     640  7.0    0.194    0.303    0.194    0.303
 build_core_hamiltonian_matrix        1  4.0    0.000    0.000    0.301    0.301
 overlap_condnum                      1  5.0    0.000    0.000    0.298    0.300
 update_ks_atom                      71  8.0    0.008    0.046    0.201    0.300
 fft_wrap_pw1pw2_10                 142 10.5    0.001    0.002    0.188    0.288
 init_scf_run                         1  3.0    0.000    0.000    0.287    0.287
 calc_mat_Q                         100  8.0    0.000    0.000    0.281    0.287
 contract_S_to_Q                    100  9.0    0.000    0.001    0.271    0.276
 mp_bcast_dm                        426  9.0    0.192    0.267    0.192    0.267
 mp_isend_dv                      22428 11.8    0.157    0.265    0.157    0.265
 pw_copy_from_array                 775 12.1    0.201    0.262    0.201    0.262
 pw_axpy                            705  9.3    0.232    0.259    0.232    0.259
 scf_env_initial_rho_setup            1  4.0    0.000    0.000    0.255    0.256
 xz_to_yz                           142 11.0    0.008    0.010    0.205    0.246
 dbcsr_multiply_generic              99  8.1    0.005    0.005    0.231    0.242
 mp_bcast_am_src                    160  7.0    0.181    0.229    0.203    0.239
 arnoldi_conjugate_gradient           5  6.0    0.006    0.007    0.237    0.237
 qs_init_subsys                       1  2.0    0.006    0.010    0.233    0.234
 dbt_tas_multiply                     8 11.5    0.000    0.000    0.231    0.232
 dbt_tas_total                        8 12.5    0.002    0.002    0.230    0.230
 copy_dbcsr_to_fm                    93  6.4    0.002    0.002    0.211    0.229
 dbcsr_complete_redistribute        237  8.4    0.012    0.018    0.221    0.227
 calculate_rho_atom_coeff            71  6.0    0.013    0.048    0.216    0.222
 qs_env_setup                         1  3.0    0.000    0.000    0.195    0.205
 qs_env_rebuild_pw_env                2  3.5    0.000    0.000    0.193    0.203
 pw_env_rebuild                       1  5.0    0.001    0.001    0.193    0.203
 offload_free_buffer                 79  8.4    0.066    0.190    0.066    0.190
 cube_transpose_2                   142 11.0    0.003    0.003    0.063    0.189
 calculate_rho0_atom                142  9.0    0.156    0.162    0.156    0.162
 pw_zero                            422 10.3    0.138    0.159    0.138    0.159
 dbcsr_sym_matrix_vector_mult       788  7.0    0.012    0.014    0.087    0.151
 cp_fm_cholesky_invert              101  8.0    0.143    0.150    0.143    0.150
 compute_Erpa_by_freq_int           100  8.0    0.001    0.001    0.149    0.150
 cp_fm_cholesky_decompose           102  9.0    0.147    0.149    0.147    0.149
 pw_grid_setup                        4  6.0    0.000    0.000    0.129    0.139
 pw_grid_setup_internal               4  7.0    0.003    0.004    0.129    0.139
 yz_to_xz                           142 14.0    0.013    0.015    0.124    0.136
 cp_fm_to_fm_submat_general         112 10.1    0.114    0.131    0.114    0.131
 cp_fm_redistribute_start            76  8.0    0.095    0.098    0.120    0.127
 copy_fm_to_dbcsr                   144  8.1    0.001    0.001    0.119    0.124
 dbcsr_desymmetrize_deep             95  7.3    0.003    0.004    0.105    0.122
 multiply_cannon                     99  9.1    0.011    0.011    0.101    0.112
 dbt_tas_dbm                          8 13.5    0.000    0.000    0.111    0.111
 dbm_multiply                         8 15.5    0.090    0.105    0.090    0.105
 mp_alltoall_i22                    332  9.1    0.076    0.096    0.076    0.096
 make_m2s                           198  9.1    0.005    0.005    0.089    0.095
 mp_alltoall_i11v                   806  9.3    0.084    0.088    0.084    0.088
 dbt_tas_estimate_result_nze          4 12.0    0.001    0.001    0.086    0.086
 multiply_cannon_loop                99 10.1    0.017    0.018    0.074    0.085
 mp_bcast_iv                        217  6.4    0.022    0.083    0.022    0.083
 scale_and_distribute               142 10.0    0.068    0.078    0.068    0.078
 dbcsr_add_d                       1240  7.1    0.001    0.001    0.009    0.072
 dbcsr_add_anytype                 1240  8.1    0.001    0.010    0.008    0.071
 dbt_tas_mm_1N                        4 14.5    0.000    0.000    0.057    0.071
 pw_grid_sort                         4  8.0    0.043    0.045    0.067    0.070
 mp_bcast_iv_src                    160  7.0    0.005    0.066    0.005    0.066
 dbcsr_finalize                    2736 10.9    0.008    0.021    0.026    0.065
 postprocess_bse                      1  9.0    0.000    0.000    0.064    0.065
 cp_fm_symm                          71  7.0    0.060    0.065    0.060    0.065
 dbcsr_rep_row_to_rep_col_vec       788  8.0    0.004    0.005    0.015    0.064
 pw_scale                           281  9.5    0.048    0.063    0.048    0.063
 scf_post_calculation_gpw             1  3.0    0.000    0.000    0.059    0.059
 write_available_results              1  4.0    0.000    0.000    0.058    0.058
 write_mo_free_results                1  5.0    0.003    0.003    0.058    0.058
 compute_max_radius                   1  6.0    0.055    0.057    0.055    0.057
 make_images                        198 10.1    0.010    0.011    0.047    0.051
 mp_maxloc_dv                      1525  1.0    0.045    0.050    0.045    0.050
 mp_irecv_dv                      22225 11.8    0.026    0.050    0.026    0.050
 dbcsr_col_vec_to_rep_row           788  8.0    0.005    0.007    0.017    0.049
 mixing_init                          1  5.0    0.041    0.044    0.045    0.046
 hybrid_alltoall_any                293 10.8    0.004    0.005    0.039    0.044
 dbt_distribution_new_expert         76 10.1    0.001    0.001    0.042    0.043
 create_B                             1  8.0    0.000    0.000    0.041    0.043
 vxc_of_r_new                       140  9.0    0.000    0.007    0.001    0.042
 rs_scatter_matrices                 71  7.0    0.001    0.002    0.035    0.040
 dbt_tas_replicate                    8 13.5    0.014    0.020    0.037    0.039
 abc_contract                       450  9.0    0.008    0.038    0.008    0.038
 dbt_tas_distribution_new           100 11.9    0.024    0.025    0.038    0.038
 mp_comm_split_direct                48 14.5    0.025    0.036    0.025    0.036
 dbt_tas_mm_2                         4 14.5    0.000    0.000    0.035    0.035
 print_transition_amplitudes          1 10.0    0.000    0.000    0.033    0.034
 print_transition_amplitudes_co      50 11.0    0.000    0.000    0.033    0.034
 filter_eigvec_contrib               50 12.0    0.016    0.020    0.033    0.033
 create_A                             1  8.0    0.001    0.001    0.032    0.033
 dbcsr_merge_all                   1915 11.7    0.010    0.026    0.013    0.032
 self_consistency_check              70  5.0    0.000    0.000    0.026    0.031
 write_mo_set_to_restart             70  5.0    0.001    0.007    0.009    0.031
 cp_sm_mix                           70  6.0    0.000    0.002    0.026    0.031
 mp_max_d                            72  6.9    0.026    0.030    0.026    0.030
 init_rho_atom                        1  3.0    0.000    0.000    0.026    0.030
 dbcsr_create_new                  6196  9.4    0.021    0.025    0.026    0.030
 mp_bcast_dv                        864  9.0    0.007    0.029    0.007    0.029
 write_mo_set_low                     4  6.0    0.000    0.000    0.008    0.028
 multiply_cannon_metrocomm3        2724 11.1    0.004    0.005    0.014    0.028
 cp_fm_write_unformatted              4  7.0    0.008    0.023    0.008    0.028
 mp_cart_rank                     78852 10.0    0.021    0.027    0.021    0.027
 get_multipoles_mo                    1 10.0    0.000    0.000    0.027    0.027
 dbcsr_iterator_start             11804  9.1    0.016    0.022    0.019    0.027
 dbcsr_crop_matrix                  350 10.0    0.002    0.003    0.025    0.027
 cp_fm_syrk                           3  7.0    0.025    0.027    0.025    0.027
 create_harmonics_atom                2  4.0    0.022    0.026    0.022    0.026
 sort_shells                          4  9.0    0.024    0.026    0.024    0.026
 dbcsr_copy                        3801  7.8    0.013    0.015    0.022    0.026
 hirshfeld_integration                1  6.0    0.001    0.003    0.025    0.025
 dbt_split_blocks_generic            20  8.8    0.004    0.005    0.025    0.025
 calculate_hirshfeld_normalizat       1  6.0    0.001    0.003    0.024    0.025
 mp2_main_free_hfx                    1  4.0    0.010    0.025    0.010    0.025
 dbt_create_new                      40  9.5    0.001    0.001    0.023    0.024
 cube_transpose_1                   142 14.0    0.002    0.003    0.020    0.024
 convert_to_new_pgrid                24 13.5    0.008    0.012    0.020    0.023
 mp_sum_iv                          299  9.6    0.020    0.023    0.020    0.023
 make_images_sizes                  198 11.1    0.000    0.000    0.021    0.023
 mp_cart_sub                        192  8.4    0.022    0.023    0.022    0.023
 mp_alltoall_i44                    198 12.1    0.021    0.022    0.021    0.022
 create_integ_mat                     4  6.0    0.001    0.001    0.020    0.021
 dbcsr_copy_submatrix               350 11.0    0.003    0.003    0.019    0.021
 mp_send_dv                           4  8.0    0.000    0.020    0.000    0.020
 mp_bcast_av                        763  1.0    0.006    0.008    0.017    0.020
 fm_general_add_bse                   5 10.2    0.000    0.000    0.016    0.020
 dbt_tas_create_split                44 13.2    0.000    0.000    0.019    0.020
 dbt_tas_create_split_rows_or_c      44 14.2    0.000    0.000    0.019    0.020
 dbt_tas_reshape                     10 13.6    0.000    0.000    0.018    0.020
 hfx_create                           1  2.0    0.014    0.016    0.017    0.019
 multiply_cannon_metrocomm1        2724 11.1    0.003    0.003    0.009    0.018
 dbcsr_iterator_stop              11804  9.1    0.011    0.016    0.013    0.018
 array2fm                             4  7.0    0.000    0.000    0.015    0.018
 dbm_reserve_blocks                  72 14.2    0.016    0.018    0.016    0.018
 mult_B_with_W                        1  8.0    0.000    0.000    0.017    0.018
 xc_pw_smooth                        70 10.0    0.000    0.000    0.015    0.017
 multiply_cannon_metrocomm4        2550 11.1    0.007    0.008    0.014    0.017
 dbcsr_sym_matrix_vector_mult_l     788  8.0    0.003    0.015    0.006    0.017
 dbm_redistribute                    18 13.7    0.015    0.017    0.015    0.017
 Q_trace_and_add_unit_matrix        100  8.0    0.001    0.001    0.012    0.016
 cp_fm_uplo_to_full                 104  8.0    0.008    0.016    0.008    0.016
 multiply_cannon_multrec           2724 11.1    0.005    0.016    0.006    0.016
 -------------------------------------------------------------------------------

 The number of warnings for this run is : 1
 
 -------------------------------------------------------------------------------
  **** **** ******  **  PROGRAM ENDED AT                 2025-04-11 10:11:43.613
 ***** ** ***  *** **   PROGRAM RAN ON                              i05r08c03s11
 **    ****   ******    PROGRAM RAN BY                                   di38fab
 ***** **    ** ** **   PROGRAM PROCESS ID                                744639
  **** **  *******  **  PROGRAM STOPPED IN /hppfs/scratch/04/di38fab/07_MOL_non_
                                           aug/05_MOL_non_aug/05_MOL/W4-11+ALK/c
                                           s2/cc-pVQZ/GW+BSE
