 DBCSR| CPU Multiplication driver                                           BLAS (U)
 DBCSR| Multrec recursion limit                                              512 (U)
 DBCSR| Multiplication stack size                                           1000 (D)
 DBCSR| Maximum elements for images                                    UNLIMITED (U)
 DBCSR| Multiplicative factor virtual images                                   1 (U)
 DBCSR| Use multiplication densification                                       T (D)
 DBCSR| Multiplication size stacks                                             3 (U)
 DBCSR| Use memory pool for CPU allocation                                     F (U)
 DBCSR| Number of 3D layers                                               SINGLE (U)
 DBCSR| Use MPI memory allocation                                              F (U)
 DBCSR| Use RMA algorithm                                                      F (U)
 DBCSR| Use Communication thread                                               T (U)
 DBCSR| Communication thread load                                             75 (D)
 DBCSR| MPI: My process id                                                     0
 DBCSR| MPI: Number of processes                                             216
 DBCSR| OMP: Current number of threads                                         4
 DBCSR| OMP: Max number of threads                                             4
 DBCSR| Split modifier for TAS multiplication algorithm                  1.0E+00 (U)


  **** **** ******  **  PROGRAM STARTED AT               2025-03-11 09:34:37.181
 ***** ** ***  *** **   PROGRAM STARTED ON                          i04r06c01s10
 **    ****   ******    PROGRAM STARTED BY                               di38fab
 ***** **    ** ** **   PROGRAM PROCESS ID                                506450
  **** **  *******  **  PROGRAM STARTED IN /hppfs/scratch/04/di38fab/05_MOL/aUKB
                                           qsEOTmq69kFe5R_nOg/5k_set_final_qzvp/
                                           HIJCEI/aug-cc-pVQZ

 CP2K| version string:                 CP2K version 2025.1 (Development Version)
 CP2K| source code revision number:                                  git:d2e611a
 CP2K| cp2kflags: omp libint fftw3 libxc parallel scalapack max_contr=4         
 CP2K| is freely available from                            https://www.cp2k.org/
 CP2K| Program compiled at                       Thu 06 Mar 2025 05:09:20 PM CET
 CP2K| Program compiled on                                               login02
 CP2K| Program compiled for                                        Supermuc-foss
 CP2K| Data directory path                  /hppfs/work/pn36zo/di38fab/cp2k/data
 CP2K| Input file name                                                    GW.inp

 GLOBAL| Force Environment number                                              1
 GLOBAL| Basis set file name            /hppfs/scratch/04/di38fab/04_TMD/BASIS_A
 GLOBAL| Potential file name            /hppfs/work/pn36zo/di38fab/cp2k/data/ALL
 GLOBAL| MM Potential file name                                     MM_POTENTIAL
 GLOBAL| Coordinate file name                                      __STD_INPUT__
 GLOBAL| Method name                                                        CP2K
 GLOBAL| Project name                                                       MoS2
 GLOBAL| Run type                                                         ENERGY
 GLOBAL| FFT library                                                       FFTW3
 GLOBAL| Diagonalization library                                       ScaLAPACK
 GLOBAL| DGEMM library                                                      BLAS
 GLOBAL| Orthonormality check for eigenvectors                          DISABLED
 GLOBAL| Matrix multiplication library                                 ScaLAPACK
 GLOBAL| All-to-all communication in single precision                          F
 GLOBAL| FFTs using library dependent lengths                                  F
 GLOBAL| Grid backend                                                       AUTO
 GLOBAL| Global print level                                               MEDIUM
 GLOBAL| MPI I/O enabled                                                       T
 GLOBAL| Total number of message passing processes                           216
 GLOBAL| Number of threads for this process                                    4
 GLOBAL| This output is from process                                           0
 GLOBAL| OpenMP stack size per thread (OMP_STACKSIZE)                    default
 GLOBAL| CPU model name             Intel(R) Xeon(R) Platinum 8174 CPU @ 3.10GHz

 MEMORY| system memory details [Kb]
 MEMORY|                        rank 0           min           max       average
 MEMORY| MemTotal             98436708      98436648      98436736      98436668
 MEMORY| MemFree              84011328      83867084      84662080      84144348
 MEMORY| Buffers                     0             0             0             0
 MEMORY| Cached                2618636       2392800       2626052       2493398
 MEMORY| Slab                  1205364       1114160       1222512       1203131
 MEMORY| SReclaimable           276748        262532        279288        271750
 MEMORY| MemLikelyFree        86906712      86645140      87325512      86909497


 *** Fundamental physical constants (SI units) ***

 *** Literature: B. J. Mohr and B. N. Taylor,
 ***             CODATA recommended values of the fundamental physical
 ***             constants: 2006, Web Version 5.1
 ***             http://physics.nist.gov/constants

 Speed of light in vacuum [m/s]                             2.99792458000000E+08
 Magnetic constant or permeability of vacuum [N/A**2]       1.25663706143592E-06
 Electric constant or permittivity of vacuum [F/m]          8.85418781762039E-12
 Planck constant (h) [J*s]                                  6.62606896000000E-34
 Planck constant (h-bar) [J*s]                              1.05457162825177E-34
 Elementary charge [C]                                      1.60217648700000E-19
 Electron mass [kg]                                         9.10938215000000E-31
 Electron g factor [ ]                                     -2.00231930436220E+00
 Proton mass [kg]                                           1.67262163700000E-27
 Fine-structure constant                                    7.29735253760000E-03
 Rydberg constant [1/m]                                     1.09737315685270E+07
 Avogadro constant [1/mol]                                  6.02214179000000E+23
 Boltzmann constant [J/K]                                   1.38065040000000E-23
 Atomic mass unit [kg]                                      1.66053878200000E-27
 Bohr radius [m]                                            5.29177208590000E-11

 *** Conversion factors ***

 [u] -> [a.u.]                                              1.82288848426455E+03
 [Angstrom] -> [Bohr] = [a.u.]                              1.88972613288564E+00
 [a.u.] = [Bohr] -> [Angstrom]                              5.29177208590000E-01
 [a.u.] -> [s]                                              2.41888432650478E-17
 [a.u.] -> [fs]                                             2.41888432650478E-02
 [a.u.] -> [J]                                              4.35974393937059E-18
 [a.u.] -> [N]                                              8.23872205491840E-08
 [a.u.] -> [K]                                              3.15774647902944E+05
 [a.u.] -> [kJ/mol]                                         2.62549961709828E+03
 [a.u.] -> [kcal/mol]                                       6.27509468713739E+02
 [a.u.] -> [Pa]                                             2.94210107994716E+13
 [a.u.] -> [bar]                                            2.94210107994716E+08
 [a.u.] -> [atm]                                            2.90362800883016E+08
 [a.u.] -> [eV]                                             2.72113838565563E+01
 [a.u.] -> [Hz]                                             6.57968392072181E+15
 [a.u.] -> [1/cm] (wave numbers)                            2.19474631370540E+05
 [a.u./Bohr**2] -> [1/cm]                                   5.14048714338585E+03
 

 CELL_TOP| Volume [angstrom^3]:                                     27000.000000
 CELL_TOP| Vector a [angstrom    30.000     0.000     0.000   |a| =    30.000000
 CELL_TOP| Vector b [angstrom     0.000    30.000     0.000   |b| =    30.000000
 CELL_TOP| Vector c [angstrom     0.000     0.000    30.000   |c| =    30.000000
 CELL_TOP| Angle (b,c), alpha [degree]:                                90.000000
 CELL_TOP| Angle (a,c), beta  [degree]:                                90.000000
 CELL_TOP| Angle (a,b), gamma [degree]:                                90.000000
 CELL_TOP| Numerically orthorhombic:                                         YES
 CELL_TOP| Periodicity                                                      NONE

 GENERATE|  Preliminary Number of Bonds generated:                             0
 GENERATE|  Achieved consistency in connectivity generation.

 CELL| Volume [angstrom^3]:                                         27000.000000
 CELL| Vector a [angstrom]:      30.000     0.000     0.000   |a| =    30.000000
 CELL| Vector b [angstrom]:       0.000    30.000     0.000   |b| =    30.000000
 CELL| Vector c [angstrom]:       0.000     0.000    30.000   |c| =    30.000000
 CELL| Angle (b,c), alpha [degree]:                                    90.000000
 CELL| Angle (a,c), beta  [degree]:                                    90.000000
 CELL| Angle (a,b), gamma [degree]:                                    90.000000
 CELL| Numerically orthorhombic:                                             YES
 CELL| Periodicity                                                          NONE

 CELL_REF| Volume [angstrom^3]:                                     27000.000000
 CELL_REF| Vector a [angstrom    30.000     0.000     0.000   |a| =    30.000000
 CELL_REF| Vector b [angstrom     0.000    30.000     0.000   |b| =    30.000000
 CELL_REF| Vector c [angstrom     0.000     0.000    30.000   |c| =    30.000000
 CELL_REF| Angle (b,c), alpha [degree]:                                90.000000
 CELL_REF| Angle (a,c), beta  [degree]:                                90.000000
 CELL_REF| Angle (a,b), gamma [degree]:                                90.000000
 CELL_REF| Numerically orthorhombic:                                         YES
 CELL_REF| Periodicity                                                      NONE

 *******************************************************************************
 *******************************************************************************
 **                                                                           **
 **     #####                         ##              ##                      **
 **    ##   ##            ##          ##              ##                      **
 **   ##     ##                       ##            ######                    **
 **   ##     ##  ##   ##  ##   #####  ##  ##   ####   ##    #####    #####    **
 **   ##     ##  ##   ##  ##  ##      ## ##   ##      ##   ##   ##  ##   ##   **
 **   ##  ## ##  ##   ##  ##  ##      ####     ###    ##   ######   ######    **
 **    ##  ###   ##   ##  ##  ##      ## ##      ##   ##   ##       ##        **
 **     #######   #####   ##   #####  ##  ##  ####    ##    #####   ##        **
 **           ##                                                    ##        **
 **                                                                           **
 **                                                ... make the atoms dance   **
 **                                                                           **
 **            Copyright (C) by CP2K developers group (2000-2025)             **
 **                      J. Chem. Phys. 152, 194103 (2020)                    **
 **                                                                           **
 *******************************************************************************

 DFT| Spin restricted Kohn-Sham (RKS) calculation                            RKS
 DFT| Multiplicity                                                             1
 DFT| Number of spin states                                                    1
 DFT| Charge                                                                   0
 DFT| Self-interaction correction (SIC)                                       NO
 DFT| Cutoffs: density                                              1.000000E-10
 DFT|          gradient                                             1.000000E-10
 DFT|          tau                                                  1.000000E-10
 DFT|          cutoff_smoothing_range                               0.000000E+00
 DFT| XC density smoothing                                                  NONE
 DFT| XC derivatives                                                          PW

 FUNCTIONAL| PBE:
 FUNCTIONAL| J.P.Perdew, K.Burke, M.Ernzerhof, Phys. Rev. Letter, vol. 77, n 18,
 FUNCTIONAL|  pp. 3865-3868, (1996)sx=0.750sc=1.000{spin unpolarized}           


 QS| Method:                                                                GAPW
 QS| Density plane wave grid type                        NON-SPHERICAL FULLSPACE
 QS| Number of grid levels:                                                    4
 QS| Density cutoff [a.u.]:                                                250.0
 QS| Multi grid cutoff [a.u.]: 1) grid level                               250.0
 QS|                           2) grid level                                83.3
 QS|                           3) grid level                                27.8
 QS|                           4) grid level                                 9.3
 QS| Grid level progression factor:                                          3.0
 QS| Relative density cutoff [a.u.]:                                        50.0
 QS| Interaction thresholds: eps_pgf_orb:                                1.0E-12
 QS|                         eps_filter_matrix:                          0.0E+00
 QS|                         eps_core_charge:                            1.0E-14
 QS|                         eps_rho_gspace:                             1.0E-12
 QS|                         eps_rho_rspace:                             1.0E-12
 QS|                         eps_gvg_rspace:                             1.0E-06
 QS|                         eps_ppl:                                    1.0E-02
 QS|                         eps_ppnl:                                   1.0E-08
 QS| GAPW|      One center basis from orbital basis primitives
 QS| GAPW|                   eps_fit:                                    1.0E-04
 QS| GAPW|                   eps_iso:                                    1.0E-12
 QS| GAPW|                   eps_svd:                                    1.0E-08
 QS| GAPW|                   eps_cpc:                                    1.0E-12
 QS| GAPW|   atom-r-grid: quadrature:                                     GC_LOG
 QS| GAPW|      atom-s-grid:  max l :                                          8
 QS| GAPW|      max_l_rho0 :                                                   2


 ATOMIC KIND INFORMATION

  1. Atomic kind: C                                     Number of atoms:       4

     Orbital Basis Set                                               aug-cc-pVQZ

       Number of orbital shell sets:                                          10
       Number of orbital shells:                                              20
       Number of primitive Cartesian functions:                               29
       Number of Cartesian basis functions:                                  105
       Number of spherical basis functions:                                   80
       Norm type:                                                              2

       Normalised Cartesian orbitals:

                        Set   Shell   Orbital            Exponent    Coefficient

                          1       1    1px               0.032180       0.019428
                          1       1    1py               0.032180       0.019428
                          1       1    1pz               0.032180       0.019428

                          2       1    1s                0.041450       0.065472

                          3       1    1dx2              0.076600       0.018357
                          3       1    1dxy              0.076600       0.031796
                          3       1    1dxz              0.076600       0.031796
                          3       1    1dy2              0.076600       0.018357
                          3       1    1dyz              0.076600       0.031796
                          3       1    1dz2              0.076600       0.018357

                          4       1    1px              34.510000       0.000000
                                                         7.915000       0.000000
                                                         2.368000       0.000000
                                                         0.813200       1.100745
                                                         0.289000       0.000000
                                                         0.100700       0.000000
                          4       1    1py              34.510000       0.000000
                                                         7.915000       0.000000
                                                         2.368000       0.000000
                                                         0.813200       1.100745
                                                         0.289000       0.000000
                                                         0.100700       0.000000
                          4       1    1pz              34.510000       0.000000
                                                         7.915000       0.000000
                                                         2.368000       0.000000
                                                         0.813200       1.100745
                                                         0.289000       0.000000
                                                         0.100700       0.000000

                          4       2    2px              34.510000       0.641198
                                                         7.915000       0.683747
                                                         2.368000       0.596637
                                                         0.813200       0.376620
                                                         0.289000       0.140105
                                                         0.100700       0.020217
                          4       2    2py              34.510000       0.641198
                                                         7.915000       0.683747
                                                         2.368000       0.596637
                                                         0.813200       0.376620
                                                         0.289000       0.140105
                                                         0.100700       0.020217
                          4       2    2pz              34.510000       0.641198
                                                         7.915000       0.683747
                                                         2.368000       0.596637
                                                         0.813200       0.376620
                                                         0.289000       0.140105
                                                         0.100700       0.020217

                          4       3    3px              34.510000       0.000000
                                                         7.915000       0.000000
                                                         2.368000       0.000000
                                                         0.813200       0.000000
                                                         0.289000       0.302039
                                                         0.100700       0.000000
                          4       3    3py              34.510000       0.000000
                                                         7.915000       0.000000
                                                         2.368000       0.000000
                                                         0.813200       0.000000
                                                         0.289000       0.302039
                                                         0.100700       0.000000
                          4       3    3pz              34.510000       0.000000
                                                         7.915000       0.000000
                                                         2.368000       0.000000
                                                         0.813200       0.000000
                                                         0.289000       0.302039
                                                         0.100700       0.000000

                          4       4    4px              34.510000       0.000000
                                                         7.915000       0.000000
                                                         2.368000       0.000000
                                                         0.813200       0.000000
                                                         0.289000       0.000000
                                                         0.100700       0.080859
                          4       4    4py              34.510000       0.000000
                                                         7.915000       0.000000
                                                         2.368000       0.000000
                                                         0.813200       0.000000
                                                         0.289000       0.000000
                                                         0.100700       0.080859
                          4       4    4pz              34.510000       0.000000
                                                         7.915000       0.000000
                                                         2.368000       0.000000
                                                         0.813200       0.000000
                                                         0.289000       0.000000
                                                         0.100700       0.080859

                          5       1    1s            33980.000000       0.162319
                                                      5089.000000       0.302313
                                                      1157.000000       0.522143
                                                       326.600000       0.841034
                                                       106.100000       1.247069
                                                        38.110000       1.607436
                                                        14.750000       1.639463
                                                         6.035000       1.095889
                                                         2.530000       0.310322
                                                         0.735500       0.008997
                                                         0.290500      -0.000870
                                                         0.111100       0.000134

                          5       2    2s            33980.000000       0.000000
                                                      5089.000000       0.000000
                                                      1157.000000       0.000000
                                                       326.600000       0.000000
                                                       106.100000       0.000000
                                                        38.110000       0.000000
                                                        14.750000       0.000000
                                                         6.035000       0.000000
                                                         2.530000       0.000000
                                                         0.735500       0.566040
                                                         0.290500       0.000000
                                                         0.111100       0.000000

                          5       3    3s            33980.000000       0.000000
                                                      5089.000000       0.000000
                                                      1157.000000       0.000000
                                                       326.600000       0.000000
                                                       106.100000       0.000000
                                                        38.110000       0.000000
                                                        14.750000       0.000000
                                                         6.035000       0.000000
                                                         2.530000       0.000000
                                                         0.735500       0.000000
                                                         0.290500       0.282013
                                                         0.111100       0.000000

                          5       4    4s            33980.000000      -0.033891
                                                      5089.000000      -0.064843
                                                      1157.000000      -0.110989
                                                       326.600000      -0.182005
                                                       106.100000      -0.271236
                                                        38.110000      -0.373428
                                                        14.750000      -0.413970
                                                         6.035000      -0.388287
                                                         2.530000      -0.168734
                                                         0.735500       0.154985
                                                         0.290500       0.165404
                                                         0.111100       0.039147

                          5       5    5s            33980.000000       0.000000
                                                      5089.000000       0.000000
                                                      1157.000000       0.000000
                                                       326.600000       0.000000
                                                       106.100000       0.000000
                                                        38.110000       0.000000
                                                        14.750000       0.000000
                                                         6.035000       0.000000
                                                         2.530000       0.000000
                                                         0.735500       0.000000
                                                         0.290500       0.000000
                                                         0.111100       0.137150

                          6       1    1fx3              0.187000       0.033853
                          6       1    1fx2y             0.187000       0.075698
                          6       1    1fx2z             0.187000       0.075698
                          6       1    1fxy2             0.187000       0.075698
                          6       1    1fxyz             0.187000       0.131112
                          6       1    1fxz2             0.187000       0.075698
                          6       1    1fy3              0.187000       0.033853
                          6       1    1fy2z             0.187000       0.075698
                          6       1    1fyz2             0.187000       0.075698
                          6       1    1fz3              0.187000       0.033853

                          7       1    1dx2              1.848000       4.821009
                                                         0.649000       0.000000
                                                         0.228000       0.000000
                          7       1    1dxy              1.848000       8.350232
                                                         0.649000       0.000000
                                                         0.228000       0.000000
                          7       1    1dxz              1.848000       8.350232
                                                         0.649000       0.000000
                                                         0.228000       0.000000
                          7       1    1dy2              1.848000       4.821009
                                                         0.649000       0.000000
                                                         0.228000       0.000000
                          7       1    1dyz              1.848000       8.350232
                                                         0.649000       0.000000
                                                         0.228000       0.000000
                          7       1    1dz2              1.848000       4.821009
                                                         0.649000       0.000000
                                                         0.228000       0.000000

                          7       2    2dx2              1.848000       0.000000
                                                         0.649000       0.772392
                                                         0.228000       0.000000
                          7       2    2dxy              1.848000       0.000000
                                                         0.649000       1.337822
                                                         0.228000       0.000000
                          7       2    2dxz              1.848000       0.000000
                                                         0.649000       1.337822
                                                         0.228000       0.000000
                          7       2    2dy2              1.848000       0.000000
                                                         0.649000       0.772392
                                                         0.228000       0.000000
                          7       2    2dyz              1.848000       0.000000
                                                         0.649000       1.337822
                                                         0.228000       0.000000
                          7       2    2dz2              1.848000       0.000000
                                                         0.649000       0.772392
                                                         0.228000       0.000000

                          7       3    3dx2              1.848000       0.000000
                                                         0.649000       0.000000
                                                         0.228000       0.123821
                          7       3    3dxy              1.848000       0.000000
                                                         0.649000       0.000000
                                                         0.228000       0.214465
                          7       3    3dxz              1.848000       0.000000
                                                         0.649000       0.000000
                                                         0.228000       0.214465
                          7       3    3dy2              1.848000       0.000000
                                                         0.649000       0.000000
                                                         0.228000       0.123821
                          7       3    3dyz              1.848000       0.000000
                                                         0.649000       0.000000
                                                         0.228000       0.214465
                          7       3    3dz2              1.848000       0.000000
                                                         0.649000       0.000000
                                                         0.228000       0.123821

                          8       1    1gx4              0.424000       0.105121
                          8       1    1gx3y             0.424000       0.278125
                          8       1    1gx3z             0.424000       0.278125
                          8       1    1gx2y2            0.424000       0.359058
                          8       1    1gx2yz            0.424000       0.621907
                          8       1    1gx2z2            0.424000       0.359058
                          8       1    1gxy3             0.424000       0.278125
                          8       1    1gxy2z            0.424000       0.621907
                          8       1    1gxyz2            0.424000       0.621907
                          8       1    1gxz3             0.424000       0.278125
                          8       1    1gy4              0.424000       0.105121
                          8       1    1gy3z             0.424000       0.278125
                          8       1    1gy2z2            0.424000       0.359058
                          8       1    1gyz3             0.424000       0.278125
                          8       1    1gz4              0.424000       0.105121

                          9       1    1fx3              1.419000       3.235302
                                                         0.485000       0.000000
                          9       1    1fx2y             1.419000       7.234355
                                                         0.485000       0.000000
                          9       1    1fx2z             1.419000       7.234355
                                                         0.485000       0.000000
                          9       1    1fxy2             1.419000       7.234355
                                                         0.485000       0.000000
                          9       1    1fxyz             1.419000      12.530271
                                                         0.485000       0.000000
                          9       1    1fxz2             1.419000       7.234355
                                                         0.485000       0.000000
                          9       1    1fy3              1.419000       3.235302
                                                         0.485000       0.000000
                          9       1    1fy2z             1.419000       7.234355
                                                         0.485000       0.000000
                          9       1    1fyz2             1.419000       7.234355
                                                         0.485000       0.000000
                          9       1    1fz3              1.419000       3.235302
                                                         0.485000       0.000000

                          9       2    2fx3              1.419000       0.000000
                                                         0.485000       0.288984
                          9       2    2fx2y             1.419000       0.000000
                                                         0.485000       0.646187
                          9       2    2fx2z             1.419000       0.000000
                                                         0.485000       0.646187
                          9       2    2fxy2             1.419000       0.000000
                                                         0.485000       0.646187
                          9       2    2fxyz             1.419000       0.000000
                                                         0.485000       1.119229
                          9       2    2fxz2             1.419000       0.000000
                                                         0.485000       0.646187
                          9       2    2fy3              1.419000       0.000000
                                                         0.485000       0.288984
                          9       2    2fy2z             1.419000       0.000000
                                                         0.485000       0.646187
                          9       2    2fyz2             1.419000       0.000000
                                                         0.485000       0.646187
                          9       2    2fz3              1.419000       0.000000
                                                         0.485000       0.288984

                         10       1    1gx4              1.011000       1.146835
                         10       1    1gx3y             1.011000       3.034241
                         10       1    1gx3z             1.011000       3.034241
                         10       1    1gx2y2            1.011000       3.917189
                         10       1    1gx2yz            1.011000       6.784770
                         10       1    1gx2z2            1.011000       3.917189
                         10       1    1gxy3             1.011000       3.034241
                         10       1    1gxy2z            1.011000       6.784770
                         10       1    1gxyz2            1.011000       6.784770
                         10       1    1gxz3             1.011000       3.034241
                         10       1    1gy4              1.011000       1.146835
                         10       1    1gy3z             1.011000       3.034241
                         10       1    1gy2z2            1.011000       3.917189
                         10       1    1gyz3             1.011000       3.034241
                         10       1    1gz4              1.011000       1.146835

     RI Auxiliary Basis Set                                    aug-cc-pVQZ-OPTRI

       Number of orbital shell sets:                                          19
       Number of orbital shells:                                              19
       Number of primitive Cartesian functions:                               19
       Number of Cartesian basis functions:                                  124
       Number of spherical basis functions:                                   89
       Norm type:                                                              2

       Normalised Cartesian orbitals:

                        Set   Shell   Orbital            Exponent    Coefficient

                          1       1    1px               0.047059       0.031242
                          1       1    1py               0.047059       0.031242
                          1       1    1pz               0.047059       0.031242

                          2       1    1s                0.062311       0.088886

                          3       1    1px               0.069085       0.050486
                          3       1    1py               0.069085       0.050486
                          3       1    1pz               0.069085       0.050486

                          4       1    1dx2              0.114693       0.037205
                          4       1    1dxy              0.114693       0.064441
                          4       1    1dxz              0.114693       0.064441
                          4       1    1dy2              0.114693       0.037205
                          4       1    1dyz              0.114693       0.064441
                          4       1    1dz2              0.114693       0.037205

                          5       1    1px               0.151311       0.134517
                          5       1    1py               0.151311       0.134517
                          5       1    1pz               0.151311       0.134517

                          6       1    1s                0.165868       0.185239

                          7       1    1fx3              0.314425       0.108985
                          7       1    1fx2y             0.314425       0.243699
                          7       1    1fx2z             0.314425       0.243699
                          7       1    1fxy2             0.314425       0.243699
                          7       1    1fxyz             0.314425       0.422098
                          7       1    1fxz2             0.314425       0.243699
                          7       1    1fy3              0.314425       0.108985
                          7       1    1fy2z             0.314425       0.243699
                          7       1    1fyz2             0.314425       0.243699
                          7       1    1fz3              0.314425       0.108985

                          8       1    1dx2              0.339088       0.248003
                          8       1    1dxy              0.339088       0.429553
                          8       1    1dxz              0.339088       0.429553
                          8       1    1dy2              0.339088       0.248003
                          8       1    1dyz              0.339088       0.429553
                          8       1    1dz2              0.339088       0.248003

                          9       1    1s                0.432835       0.380322

                         10       1    1gx4              0.675927       0.379018
                         10       1    1gx3y             0.675927       1.002787
                         10       1    1gx3z             0.675927       1.002787
                         10       1    1gx2y2            0.675927       1.294593
                         10       1    1gx2yz            0.675927       2.242301
                         10       1    1gx2z2            0.675927       1.294593
                         10       1    1gxy3             0.675927       1.002787
                         10       1    1gxy2z            0.675927       2.242301
                         10       1    1gxyz2            0.675927       2.242301
                         10       1    1gxz3             0.675927       1.002787
                         10       1    1gy4              0.675927       0.379018
                         10       1    1gy3z             0.675927       1.002787
                         10       1    1gy2z2            0.675927       1.294593
                         10       1    1gyz3             0.675927       1.002787
                         10       1    1gz4              0.675927       0.379018

                         11       1    1fx3              0.726248       0.716796
                         11       1    1fx2y             0.726248       1.602805
                         11       1    1fx2z             0.726248       1.602805
                         11       1    1fxy2             0.726248       1.602805
                         11       1    1fxyz             0.726248       2.776139
                         11       1    1fxz2             0.726248       1.602805
                         11       1    1fy3              0.726248       0.716796
                         11       1    1fy2z             0.726248       1.602805
                         11       1    1fyz2             0.726248       1.602805
                         11       1    1fz3              0.726248       0.716796

                         12       1    1hx5              1.155657       1.187239
                         12       1    1hx4y             1.155657       3.561718
                         12       1    1hx4z             1.155657       3.561718
                         12       1    1hx3y2            1.155657       5.440614
                         12       1    1hx3yz            1.155657       9.423420
                         12       1    1hx3z2            1.155657       5.440614
                         12       1    1hx2y3            1.155657       5.440614
                         12       1    1hx2y2z           1.155657      12.165583
                         12       1    1hx2yz2           1.155657      12.165583
                         12       1    1hx2z3            1.155657       5.440614
                         12       1    1hxy4             1.155657       3.561718
                         12       1    1hxy3z            1.155657       9.423420
                         12       1    1hxy2z2           1.155657      12.165583
                         12       1    1hxyz3            1.155657       9.423420
                         12       1    1hxz4             1.155657       3.561718
                         12       1    1hy5              1.155657       1.187239
                         12       1    1hy4z             1.155657       3.561718
                         12       1    1hy3z2            1.155657       5.440614
                         12       1    1hy2z3            1.155657       5.440614
                         12       1    1hyz4             1.155657       3.561718
                         12       1    1hz5              1.155657       1.187239

                         13       1    1px               1.221757       1.830927
                         13       1    1py               1.221757       1.830927
                         13       1    1pz               1.221757       1.830927

                         14       1    1dx2              1.234971       2.381271
                         14       1    1dxy              1.234971       4.124482
                         14       1    1dxz              1.234971       4.124482
                         14       1    1dy2              1.234971       2.381271
                         14       1    1dyz              1.234971       4.124482
                         14       1    1dz2              1.234971       2.381271

                         15       1    1s                1.924328       1.164446

                         16       1    1gx4              2.190809       9.618290
                         16       1    1gx3y             2.190809      25.447602
                         16       1    1gx3z             2.190809      25.447602
                         16       1    1gx2y2            2.190809      32.852713
                         16       1    1gx2yz            2.190809      56.902568
                         16       1    1gx2z2            2.190809      32.852713
                         16       1    1gxy3             2.190809      25.447602
                         16       1    1gxy2z            2.190809      56.902568
                         16       1    1gxyz2            2.190809      56.902568
                         16       1    1gxz3             2.190809      25.447602
                         16       1    1gy4              2.190809       9.618290
                         16       1    1gy3z             2.190809      25.447602
                         16       1    1gy2z2            2.190809      32.852713
                         16       1    1gyz3             2.190809      25.447602
                         16       1    1gz4              2.190809       9.618290

                         17       1    1dx2              3.110401      11.990523
                         17       1    1dxy              3.110401      20.768195
                         17       1    1dxz              3.110401      20.768195
                         17       1    1dy2              3.110401      11.990523
                         17       1    1dyz              3.110401      20.768195
                         17       1    1dz2              3.110401      11.990523

                         18       1    1px               3.134944       5.946033
                         18       1    1py               3.134944       5.946033
                         18       1    1pz               3.134944       5.946033

                         19       1    1fx3              3.452225      23.915387
                         19       1    1fx2y             3.452225      53.476431
                         19       1    1fx2z             3.452225      53.476431
                         19       1    1fxy2             3.452225      53.476431
                         19       1    1fxyz             3.452225      92.623895
                         19       1    1fxz2             3.452225      53.476431
                         19       1    1fy3              3.452225      23.915387
                         19       1    1fy2z             3.452225      53.476431
                         19       1    1fyz2             3.452225      53.476431
                         19       1    1fz3              3.452225      23.915387

       Atomic covalent radius [Angstrom]:                                  0.770

       Atomic van der Waals radius [Angstrom]:                             1.700

     The atoms of this atomic kind are PAW atoms (GAPW):
       Hard Gaussian function radius:                                      1.512
       Rho0 radius:                                                        1.512
       Maximum GTO radius used for PAW projector construction:            24.566

     GAPW Soft Basis Set                                        aug-cc-pVQZ_soft

       Number of orbital shell sets:                                          10
       Number of orbital shells:                                              20
       Number of primitive Cartesian functions:                               19
       Number of Cartesian basis functions:                                  105
       Number of spherical basis functions:                                   80
       Norm type:                                                              2

       Normalised Cartesian orbitals:

                        Set   Shell   Orbital            Exponent    Coefficient

                          1       1    1px               0.032180       0.019428
                          1       1    1py               0.032180       0.019428
                          1       1    1pz               0.032180       0.019428

                          2       1    1s                0.041450       0.065472

                          3       1    1dx2              0.076600       0.018357
                          3       1    1dxy              0.076600       0.031796
                          3       1    1dxz              0.076600       0.031796
                          3       1    1dy2              0.076600       0.018357
                          3       1    1dyz              0.076600       0.031796
                          3       1    1dz2              0.076600       0.018357

                          4       1    1px               2.368000       0.000000
                                                         0.813200       1.100745
                                                         0.289000       0.000000
                                                         0.100700       0.000000
                          4       1    1py               2.368000       0.000000
                                                         0.813200       1.100745
                                                         0.289000       0.000000
                                                         0.100700       0.000000
                          4       1    1pz               2.368000       0.000000
                                                         0.813200       1.100745
                                                         0.289000       0.000000
                                                         0.100700       0.000000

                          4       2    2px               2.368000       0.596637
                                                         0.813200       0.376620
                                                         0.289000       0.140105
                                                         0.100700       0.020217
                          4       2    2py               2.368000       0.596637
                                                         0.813200       0.376620
                                                         0.289000       0.140105
                                                         0.100700       0.020217
                          4       2    2pz               2.368000       0.596637
                                                         0.813200       0.376620
                                                         0.289000       0.140105
                                                         0.100700       0.020217

                          4       3    3px               2.368000       0.000000
                                                         0.813200       0.000000
                                                         0.289000       0.302039
                                                         0.100700       0.000000
                          4       3    3py               2.368000       0.000000
                                                         0.813200       0.000000
                                                         0.289000       0.302039
                                                         0.100700       0.000000
                          4       3    3pz               2.368000       0.000000
                                                         0.813200       0.000000
                                                         0.289000       0.302039
                                                         0.100700       0.000000

                          4       4    4px               2.368000       0.000000
                                                         0.813200       0.000000
                                                         0.289000       0.000000
                                                         0.100700       0.080859
                          4       4    4py               2.368000       0.000000
                                                         0.813200       0.000000
                                                         0.289000       0.000000
                                                         0.100700       0.080859
                          4       4    4pz               2.368000       0.000000
                                                         0.813200       0.000000
                                                         0.289000       0.000000
                                                         0.100700       0.080859

                          5       1    1s                2.530000       0.310322
                                                         0.735500       0.008997
                                                         0.290500      -0.000870
                                                         0.111100       0.000134

                          5       2    2s                2.530000       0.000000
                                                         0.735500       0.566040
                                                         0.290500       0.000000
                                                         0.111100       0.000000

                          5       3    3s                2.530000       0.000000
                                                         0.735500       0.000000
                                                         0.290500       0.282013
                                                         0.111100       0.000000

                          5       4    4s                2.530000      -0.168734
                                                         0.735500       0.154985
                                                         0.290500       0.165404
                                                         0.111100       0.039147

                          5       5    5s                2.530000       0.000000
                                                         0.735500       0.000000
                                                         0.290500       0.000000
                                                         0.111100       0.137150

                          6       1    1fx3              0.187000       0.033853
                          6       1    1fx2y             0.187000       0.075698
                          6       1    1fx2z             0.187000       0.075698
                          6       1    1fxy2             0.187000       0.075698
                          6       1    1fxyz             0.187000       0.131112
                          6       1    1fxz2             0.187000       0.075698
                          6       1    1fy3              0.187000       0.033853
                          6       1    1fy2z             0.187000       0.075698
                          6       1    1fyz2             0.187000       0.075698
                          6       1    1fz3              0.187000       0.033853

                          7       1    1dx2              1.848000       4.821009
                                                         0.649000       0.000000
                                                         0.228000       0.000000
                          7       1    1dxy              1.848000       8.350232
                                                         0.649000       0.000000
                                                         0.228000       0.000000
                          7       1    1dxz              1.848000       8.350232
                                                         0.649000       0.000000
                                                         0.228000       0.000000
                          7       1    1dy2              1.848000       4.821009
                                                         0.649000       0.000000
                                                         0.228000       0.000000
                          7       1    1dyz              1.848000       8.350232
                                                         0.649000       0.000000
                                                         0.228000       0.000000
                          7       1    1dz2              1.848000       4.821009
                                                         0.649000       0.000000
                                                         0.228000       0.000000

                          7       2    2dx2              1.848000       0.000000
                                                         0.649000       0.772392
                                                         0.228000       0.000000
                          7       2    2dxy              1.848000       0.000000
                                                         0.649000       1.337822
                                                         0.228000       0.000000
                          7       2    2dxz              1.848000       0.000000
                                                         0.649000       1.337822
                                                         0.228000       0.000000
                          7       2    2dy2              1.848000       0.000000
                                                         0.649000       0.772392
                                                         0.228000       0.000000
                          7       2    2dyz              1.848000       0.000000
                                                         0.649000       1.337822
                                                         0.228000       0.000000
                          7       2    2dz2              1.848000       0.000000
                                                         0.649000       0.772392
                                                         0.228000       0.000000

                          7       3    3dx2              1.848000       0.000000
                                                         0.649000       0.000000
                                                         0.228000       0.123821
                          7       3    3dxy              1.848000       0.000000
                                                         0.649000       0.000000
                                                         0.228000       0.214465
                          7       3    3dxz              1.848000       0.000000
                                                         0.649000       0.000000
                                                         0.228000       0.214465
                          7       3    3dy2              1.848000       0.000000
                                                         0.649000       0.000000
                                                         0.228000       0.123821
                          7       3    3dyz              1.848000       0.000000
                                                         0.649000       0.000000
                                                         0.228000       0.214465
                          7       3    3dz2              1.848000       0.000000
                                                         0.649000       0.000000
                                                         0.228000       0.123821

                          8       1    1gx4              0.424000       0.105121
                          8       1    1gx3y             0.424000       0.278125
                          8       1    1gx3z             0.424000       0.278125
                          8       1    1gx2y2            0.424000       0.359058
                          8       1    1gx2yz            0.424000       0.621907
                          8       1    1gx2z2            0.424000       0.359058
                          8       1    1gxy3             0.424000       0.278125
                          8       1    1gxy2z            0.424000       0.621907
                          8       1    1gxyz2            0.424000       0.621907
                          8       1    1gxz3             0.424000       0.278125
                          8       1    1gy4              0.424000       0.105121
                          8       1    1gy3z             0.424000       0.278125
                          8       1    1gy2z2            0.424000       0.359058
                          8       1    1gyz3             0.424000       0.278125
                          8       1    1gz4              0.424000       0.105121

                          9       1    1fx3              1.419000       3.235302
                                                         0.485000       0.000000
                          9       1    1fx2y             1.419000       7.234355
                                                         0.485000       0.000000
                          9       1    1fx2z             1.419000       7.234355
                                                         0.485000       0.000000
                          9       1    1fxy2             1.419000       7.234355
                                                         0.485000       0.000000
                          9       1    1fxyz             1.419000      12.530271
                                                         0.485000       0.000000
                          9       1    1fxz2             1.419000       7.234355
                                                         0.485000       0.000000
                          9       1    1fy3              1.419000       3.235302
                                                         0.485000       0.000000
                          9       1    1fy2z             1.419000       7.234355
                                                         0.485000       0.000000
                          9       1    1fyz2             1.419000       7.234355
                                                         0.485000       0.000000
                          9       1    1fz3              1.419000       3.235302
                                                         0.485000       0.000000

                          9       2    2fx3              1.419000       0.000000
                                                         0.485000       0.288984
                          9       2    2fx2y             1.419000       0.000000
                                                         0.485000       0.646187
                          9       2    2fx2z             1.419000       0.000000
                                                         0.485000       0.646187
                          9       2    2fxy2             1.419000       0.000000
                                                         0.485000       0.646187
                          9       2    2fxyz             1.419000       0.000000
                                                         0.485000       1.119229
                          9       2    2fxz2             1.419000       0.000000
                                                         0.485000       0.646187
                          9       2    2fy3              1.419000       0.000000
                                                         0.485000       0.288984
                          9       2    2fy2z             1.419000       0.000000
                                                         0.485000       0.646187
                          9       2    2fyz2             1.419000       0.000000
                                                         0.485000       0.646187
                          9       2    2fz3              1.419000       0.000000
                                                         0.485000       0.288984

                         10       1    1gx4              1.011000       1.146835
                         10       1    1gx3y             1.011000       3.034241
                         10       1    1gx3z             1.011000       3.034241
                         10       1    1gx2y2            1.011000       3.917189
                         10       1    1gx2yz            1.011000       6.784770
                         10       1    1gx2z2            1.011000       3.917189
                         10       1    1gxy3             1.011000       3.034241
                         10       1    1gxy2z            1.011000       6.784770
                         10       1    1gxyz2            1.011000       6.784770
                         10       1    1gxz3             1.011000       3.034241
                         10       1    1gy4              1.011000       1.146835
                         10       1    1gy3z             1.011000       3.034241
                         10       1    1gy2z2            1.011000       3.917189
                         10       1    1gyz3             1.011000       3.034241
                         10       1    1gz4              1.011000       1.146835

     AE Potential information for                                            ALL

       Description:                                       All-electron potential
                                          Krack, Parrinello, PCCP 2, 2105 (2000)

       Gaussian exponent of the core charge distribution:               4.109048
       Electronic configuration (s p d ...):                           4   2   0

  2. Atomic kind: H                                     Number of atoms:       8

     Orbital Basis Set                                               aug-cc-pVQZ

       Number of orbital shell sets:                                           8
       Number of orbital shells:                                              14
       Number of primitive Cartesian functions:                               16
       Number of Cartesian basis functions:                                   55
       Number of spherical basis functions:                                   46
       Norm type:                                                              2

       Normalised Cartesian orbitals:

                        Set   Shell   Orbital            Exponent    Coefficient

                          1       1    1s                0.023630       0.042954

                          2       1    1px               0.084800       0.065228
                          2       1    1py               0.084800       0.065228
                          2       1    1pz               0.084800       0.065228

                          3       1    1s               82.640000       0.000000
                                                        12.410000       0.000000
                                                         2.824000       0.000000
                                                         0.797700       0.601575
                                                         0.258100       0.000000
                                                         0.089890       0.000000

                          3       2    2s               82.640000       0.000000
                                                        12.410000       0.000000
                                                         2.824000       0.000000
                                                         0.797700       0.000000
                                                         0.258100       0.258078
                                                         0.089890       0.000000

                          3       3    3s               82.640000       0.039186
                                                        12.410000       0.072302
                                                         2.824000       0.117344
                                                         0.797700       0.154530
                                                         0.258100       0.128360
                                                         0.089890       0.034648

                          3       4    4s               82.640000       0.000000
                                                        12.410000       0.000000
                                                         2.824000       0.000000
                                                         0.797700       0.000000
                                                         0.258100       0.000000
                                                         0.089890       0.117002

                          4       1    1dx2              0.190000       0.089997
                          4       1    1dxy              0.190000       0.155879
                          4       1    1dxz              0.190000       0.155879
                          4       1    1dy2              0.190000       0.089997
                          4       1    1dyz              0.190000       0.155879
                          4       1    1dz2              0.190000       0.089997

                          5       1    1px               2.292000       4.019836
                                                         0.838000       0.000000
                                                         0.292000       0.000000
                          5       1    1py               2.292000       4.019836
                                                         0.838000       0.000000
                                                         0.292000       0.000000
                          5       1    1pz               2.292000       4.019836
                                                         0.838000       0.000000
                                                         0.292000       0.000000

                          5       2    2px               2.292000       0.000000
                                                         0.838000       1.142865
                                                         0.292000       0.000000
                          5       2    2py               2.292000       0.000000
                                                         0.838000       1.142865
                                                         0.292000       0.000000
                          5       2    2pz               2.292000       0.000000
                                                         0.838000       1.142865
                                                         0.292000       0.000000

                          5       3    3px               2.292000       0.000000
                                                         0.838000       0.000000
                                                         0.292000       0.305963
                          5       3    3py               2.292000       0.000000
                                                         0.838000       0.000000
                                                         0.292000       0.305963
                          5       3    3pz               2.292000       0.000000
                                                         0.838000       0.000000
                                                         0.292000       0.305963

                          6       1    1fx3              0.360000       0.147787
                          6       1    1fx2y             0.360000       0.330461
                          6       1    1fx2z             0.360000       0.330461
                          6       1    1fxy2             0.360000       0.330461
                          6       1    1fxyz             0.360000       0.572375
                          6       1    1fxz2             0.360000       0.330461
                          6       1    1fy3              0.360000       0.147787
                          6       1    1fy2z             0.360000       0.330461
                          6       1    1fyz2             0.360000       0.330461
                          6       1    1fz3              0.360000       0.147787

                          7       1    1dx2              2.062000       5.840024
                                                         0.662000       0.000000
                          7       1    1dxy              2.062000      10.115218
                                                         0.662000       0.000000
                          7       1    1dxz              2.062000      10.115218
                                                         0.662000       0.000000
                          7       1    1dy2              2.062000       5.840024
                                                         0.662000       0.000000
                          7       1    1dyz              2.062000      10.115218
                                                         0.662000       0.000000
                          7       1    1dz2              2.062000       5.840024
                                                         0.662000       0.000000

                          7       2    2dx2              2.062000       0.000000
                                                         0.662000       0.799670
                          7       2    2dxy              2.062000       0.000000
                                                         0.662000       1.385069
                          7       2    2dxz              2.062000       0.000000
                                                         0.662000       1.385069
                          7       2    2dy2              2.062000       0.000000
                                                         0.662000       0.799670
                          7       2    2dyz              2.062000       0.000000
                                                         0.662000       1.385069
                          7       2    2dz2              2.062000       0.000000
                                                         0.662000       0.799670

                          8       1    1fx3              1.397000       3.123535
                          8       1    1fx2y             1.397000       6.984436
                          8       1    1fx2z             1.397000       6.984436
                          8       1    1fxy2             1.397000       6.984436
                          8       1    1fxyz             1.397000      12.097399
                          8       1    1fxz2             1.397000       6.984436
                          8       1    1fy3              1.397000       3.123535
                          8       1    1fy2z             1.397000       6.984436
                          8       1    1fyz2             1.397000       6.984436
                          8       1    1fz3              1.397000       3.123535

     RI Auxiliary Basis Set                                    aug-cc-pVQZ-OPTRI

       Number of orbital shell sets:                                          15
       Number of orbital shells:                                              15
       Number of primitive Cartesian functions:                               15
       Number of Cartesian basis functions:                                   84
       Number of spherical basis functions:                                   63
       Norm type:                                                              2

       Normalised Cartesian orbitals:

                        Set   Shell   Orbital            Exponent    Coefficient

                          1       1    1s                0.172202       0.190519

                          2       1    1dx2              0.411937       0.348629
                          2       1    1dxy              0.411937       0.603843
                          2       1    1dxz              0.411937       0.603843
                          2       1    1dy2              0.411937       0.348629
                          2       1    1dyz              0.411937       0.603843
                          2       1    1dz2              0.411937       0.348629

                          3       1    1s                0.462666       0.399817

                          4       1    1px               0.544212       0.666270
                          4       1    1py               0.544212       0.666270
                          4       1    1pz               0.544212       0.666270

                          5       1    1fx3              0.798039       0.886153
                          5       1    1fx2y             0.798039       1.981498
                          5       1    1fx2z             0.798039       1.981498
                          5       1    1fxy2             0.798039       1.981498
                          5       1    1fxyz             0.798039       3.432056
                          5       1    1fxz2             0.798039       1.981498
                          5       1    1fy3              0.798039       0.886153
                          5       1    1fy2z             0.798039       1.981498
                          5       1    1fyz2             0.798039       1.981498
                          5       1    1fz3              0.798039       0.886153

                          6       1    1gx4              1.030651       1.209184
                          6       1    1gx3y             1.030651       3.199200
                          6       1    1gx3z             1.030651       3.199200
                          6       1    1gx2y2            1.030651       4.130150
[...]
 mp2_gpw_main                         1  4.0    0.000    0.001 1406.051 1406.101
 rpa_ri_compute_en                    1  5.0    0.001    0.004 1387.080 1387.083
 rpa_num_int                          1  6.0    0.002    0.002 1385.444 1385.536
 compute_GW_self_energy             100  7.0    0.002    0.004  996.925 1006.393
 compute_GW_self_energy_deep        100  8.0  750.339  751.414  995.723 1005.191
 scf_env_do_scf                       1  3.0    0.000    0.000  426.086  426.094
 scf_env_do_scf_inner_loop           93  4.0    0.002    0.007  426.086  426.094
 qs_ks_build_kohn_sham_matrix        94  7.0    0.014    0.016  375.503  375.659
 qs_ks_update_qs_env                 93  5.0    0.001    0.001  373.631  373.785
 rebuild_ks_matrix                   93  6.0    0.000    0.001  373.616  373.770
 start_bse_calculation                1  7.0    0.001    0.002  372.735  372.737
 parallel_gemm_fm                   407  8.3    0.001    0.001  323.553  333.370
 parallel_gemm_fm_gemm              407  9.3    0.001    0.001  323.552  333.370
 cp_fm_gemm                         407 10.3  323.551  333.369  323.551  333.369
 cp_fm_syevd                         99  7.0    0.001    0.001  298.123  298.766
 cp_fm_redistribute_end              99  8.0  148.953  298.266  149.350  298.275
 cp_fm_syevd_base                    99  8.0  148.184  296.536  148.184  296.536
 hfx_ks_matrix                       94  8.0    0.004    0.004  263.372  263.469
 integrate_four_center               94  9.0    2.081    4.117  263.363  263.459
 create_hermitian_form_of_ABBA        1  8.0    0.001    0.001  192.032  192.199
 integrate_four_center_main          94 10.0    1.048    2.467  144.363  177.130
 integrate_four_center_bin        19768 11.0  143.315  175.816  143.315  175.816
 diagonalize_C                        1  8.0    0.002    0.003  167.883  167.915
 cp_fm_power                          2  7.5    0.433    0.470  154.194  154.453
 mp_sync                            929  9.6   50.353   76.582   50.353   76.582
 calc_screening_functions             1 10.0   55.986   60.011   62.767   66.810
 sum_up_and_integrate                94  8.0    0.001    0.002   32.153   32.210
 integrate_v_rspace                  94  9.0    0.002    0.003   32.113   32.184
 qs_rho_update_rho_low               94  5.0    0.001    0.001   30.466   30.469
 fft_wrap_pw1pw2                   1965  9.9    0.031    0.041   29.000   29.428
 fft_wrap_pw1pw2_250               1401 11.1    0.978    1.059   27.470   27.935
 calculate_rho_elec                  94  6.0    0.205    0.219   27.267   27.269
 mp_alltoall_d11v                  1720  9.4   24.150   26.412   24.150   26.412
 fft3d_ps                          1965 11.9    9.254    9.908   24.882   25.472
 rs_gather_matrices                  94 10.0    0.012    0.039   22.353   23.554
 pw_poisson_solve                    94  8.0    0.550    0.594   23.394   23.406
 grid_integrate_task_list            94 10.0    1.181   23.213    1.181   23.213
 density_rs2pw                       94  7.0    0.005    0.006   20.743   22.552
 transfer_rs2pw                     471  8.4    0.009    0.013   18.325   20.138
 mp2_ri_gpw_compute_in                1  5.0    0.023    0.028   18.883   18.891
 mp2_ri_gpw_compute_in_loop           1  6.0    0.000    0.000   18.812   18.825
 mp_waitany                       23772 11.5   16.047   18.044   16.047   18.044
 mp_sum_d                         16801  6.9   15.251   17.945   15.251   17.945
 grid_collocate_task_list            94  7.0    5.884   17.266    5.884   17.266
 contract_B_L                         4  7.0    0.068    0.077   14.623   17.246
 prepare_gapw_den                    94  8.0    0.003    0.004   17.085   17.160
 mp_alltoall_z22v                  1965 13.9   13.412   17.118   13.412   17.118
 qs_vxc_create                       94  8.0    0.001    0.001   16.416   16.416
 xc_vxc_pw_create                    93  9.0    0.260    0.295   16.415   16.415
 ps_wavelet_solve                    94  9.0    9.283   13.505   16.209   16.297
 transfer_rs2pw_250                 189 10.0    1.527    1.749   13.837   15.975
 qs_scf_new_mos                      93  5.0    0.001    0.002   14.940   15.010
 eigensolver_symm                    94  6.0    0.004    0.005   13.651   13.661
 xc_pw_derive                       558 11.0    0.005    0.006   12.451   13.346
 mp_alltoall_d54                     94 10.0    5.129   12.716    5.129   12.716
 calculate_vxc_atom                  94  8.0    0.079    0.909   12.566   12.567
 powell_optimize                4538540 11.0   11.223   11.645   11.223   11.645
 gaVxcgb_GC                         186  9.0    0.224   11.526    0.224   11.526
 calculate_rho_atom                 376  9.0    3.298   10.632    3.298   10.633
 cp_fm_syrk                           2  8.5    9.760   10.251    9.760   10.251
 yz_to_x                            749 13.2    0.665    0.810    7.514    9.973
 mp_cart_create                     650  9.8    7.033    9.669    7.034    9.670
 mp2_eri_3c_integrate                 1  7.0    0.039    0.063    3.068    9.657
 dbt_pgrid_create_expert             84 10.8    0.000    0.000    6.998    9.636
 integrate_set_3c                 44008  8.0    2.738    8.687    3.029    9.600
 xc_pw_divergence                    93 10.0    0.002    0.003    8.419    9.226
 mp_sum_dv                        41332  9.8    8.218    8.792    8.218    8.792
 potential_pw2rs                     94 10.0    0.019    0.026    8.577    8.666
 transfer_pw2rs                     471 10.6    0.007    0.009    8.028    8.195
 xc_rho_set_and_dset_create          93 10.0    0.204    0.259    7.548    8.073
 x_to_yz                            840 12.9    0.987    1.112    7.484    7.880
 dbt_total                            8  8.0    0.000    0.000    7.508    7.508
 create_B                             1  8.0    0.000    0.001    7.290    7.381
 gspace_mixing                       92  5.0    0.200    0.214    7.313    7.314
 dbt_contract                         4  9.0    0.001    0.001    7.080    7.096
 integrate_vhg0_rspace               94  8.0    1.060    1.164    6.890    6.968
 mp_waitall_1                     98038 12.0    5.841    6.945    5.841    6.945
 calc_pair_dist_radii                 1 10.0    2.309    2.353    6.751    6.944
 mp_sum_dm                         4610  7.7    6.482    6.668    6.482    6.668
 dbt_tas_multiply                     8 11.5    0.000    0.000    6.351    6.351
 dbt_tas_total                        8 12.5    0.002    0.005    6.350    6.350
 rpa_num_int_RPA_matrix_operati     100  7.0    0.001    0.004    6.095    6.096
 mp_sum_l                          1100  6.5    4.130    5.598    4.130    5.598
 integrate_four_center_load          94 10.0    0.000    0.001    4.082    5.539
 hfx_load_balance                     1 11.0    0.000    0.000    4.082    5.538
 hfx_load_balance_range               1 12.0    0.000    0.002    4.012    5.468
 calc_mat_Q                         100  8.0    0.000    0.001    5.354    5.395
 contract_S_to_Q                    100  9.0    0.001    0.001    5.330    5.371
 broyden_mixing                      92  6.0    5.096    5.253    5.276    5.351
 create_A                             1  8.0    0.006    0.010    4.989    5.053
 put_rho0_on_grid                    94  9.0    0.221    0.294    4.486    4.561
 transfer_pw2rs_250                 189 11.0    1.358    1.632    4.186    4.534
 dbt_tas_dbm                          8 13.5    0.000    0.000    3.707    3.707
 dbm_multiply                         8 15.5    3.252    3.662    3.252    3.662
 dbt_tas_mm_1N                        6 14.5    0.000    0.000    3.238    3.648
 qs_energies_init_hamiltonians        1  3.0    0.000    0.000    3.630    3.630
 build_core_hamiltonian_matrix        1  4.0    0.000    0.000    3.615    3.615
 overlap_condnum                      1  5.0    0.000    0.001    3.595    3.613
 arnoldi_conjugate_gradient           5  6.0    0.068    0.085    3.325    3.326
 calculate_rho_atom_coeff            94  6.0    0.109    0.220    3.199    3.199
 mp_isendrecv_dv                  80840 12.0    1.103    3.152    1.103    3.152
 transfer_rs2pw_90                   94  9.0    0.303    0.390    1.844    2.800
 integrate_four_center_getP          94 10.0    0.163    0.213    2.746    2.753
 mp_alltoall_d45                     95 10.0    1.803    2.714    1.803    2.714
 integrate_four_center_dist_KS       94 10.0    0.095    0.106    2.637    2.643
 fm_general_add_bse                   5 10.2    0.000    0.000    2.323    2.431
 mp_waitall_2                        50 15.7    0.731    2.417    0.731    2.417
 dbt_tas_replicate                    8 13.5    0.180    0.222    0.746    2.281
 dbcsr_sym_matrix_vector_mult     10015  7.0    0.159    0.176    1.899    2.188
 transfer_pw2rs_30                   94 12.0    0.864    0.933    1.943    2.121
 transfer_rs2pw_30                   94  9.0    0.892    0.936    2.016    2.084
 cp_fm_to_fm_submat_general         112 10.1    1.415    2.066    1.415    2.066
 calculate_rho0_atom                376  9.0    1.965    2.055    1.965    2.055
 dbt_tas_communicate_buffer          17 15.8    0.005    0.006    0.462    1.991
 dbt_tas_replicate_communicate_       6 14.5    0.000    0.000    0.451    1.980
 compute_vec_Sigma_x_minus_vxc_       1  4.0    0.000    0.000    1.909    1.910
 xc_functional_eval                 465 10.9    0.001    0.002    1.308    1.838
 pbe_lda_eval                       465 11.9    1.307    1.836    1.307    1.836
 create_integ_mat                     4  6.0    0.008    0.014    1.621    1.782
 array2fm                             4  7.0    0.000    0.000    1.379    1.751
 create_qs_kind_set                   1  2.0    0.000    0.000    1.616    1.617
 read_qs_kind                         4  3.0    0.862    0.912    1.616    1.617
 mp_sendrecv_dv                   40420 10.0    1.516    1.600    1.516    1.600
 pw_scatter_p                      1028 12.1    1.343    1.532    1.343    1.532
 transfer_pw2rs_90                   94 12.0    0.295    0.342    1.291    1.474
 mp_bcast_dv                      10114  9.0    0.646    1.398    0.646    1.398
 rs_grid_zero                       472 11.2    1.344    1.396    1.344    1.396
 Vh_1c_gg_integrals                  94  8.0    0.040    1.129    1.172    1.384
 dbt_tas_estimate_result_nze          4 12.0    0.022    0.031    1.351    1.351
 pw_gather_p                        937 11.8    1.037    1.270    1.037    1.270
 dbcsr_multiply_generic             146  8.1    0.009    0.010    1.158    1.259
 cp2k_distribution_to_z_slices       94  9.0    0.433    0.477    1.016    1.239
 cp_fm_cholesky_invert              101  8.0    1.108    1.192    1.108    1.192
 fft_wrap_pw1pw2_90                 188 10.5    0.029    0.050    0.941    1.089
 dbt_copy                            12 10.1    0.000    0.001    0.921    1.074
 pw_derive                          840 11.3    0.921    0.997    0.921    0.997
 dbcsr_rep_row_to_rep_col_vec     10015  8.0    0.054    0.075    0.436    0.994
 copy_dbcsr_to_fm                   128  6.5    0.003    0.003    0.915    0.977
 cp_fm_uplo_to_full                 103  8.0    0.760    0.970    0.760    0.970
 cp_fm_redistribute_start            99  8.0    0.358    0.623    0.588    0.953
 dbcsr_add_d                      15101  7.0    0.014    0.016    0.135    0.925
 abc_contract                     44008  9.0    0.292    0.913    0.292    0.913
 dbcsr_add_anytype                15101  8.0    0.018    0.124    0.121    0.909
 calculate_dm_sparse                 93  6.0    0.001    0.001    0.806    0.889
 cp_dbcsr_plus_fm_fm_t               93  7.0    0.002    0.002    0.804    0.887
 cp_fm_cholesky_decompose           102  9.0    0.766    0.840    0.766    0.840
 dbcsr_complete_redistribute        318  8.4    0.101    0.128    0.753    0.808
 parser_read_line                182373  4.0    0.062    0.067    0.755    0.773
 pw_copy                           1405 10.6    0.713    0.771    0.713    0.771
 dbcsr_col_vec_to_rep_row         10015  8.0    0.072    0.096    0.555    0.733
 multiply_cannon                    146  9.1    0.018    0.020    0.653    0.729
 array2fm_info                        4  8.0    0.587    0.712    0.606    0.728
 parser_read_line_low               201  5.0    0.061    0.264    0.692    0.711
 dbt_reshape                          8 11.6    0.148    0.170    0.540    0.707
 compute_Erpa_by_freq_int           100  8.0    0.002    0.004    0.680    0.681
 multiply_cannon_loop               146 10.1    0.024    0.031    0.592    0.674
 broadcast_input_information        201  6.0    0.150    0.167    0.631    0.672
 array2fm_fill                        4  8.0    0.196    0.274    0.408    0.665
 transfer_pw2rs_10                   94 12.0    0.224    0.285    0.600    0.639
 transfer_rs2pw_10                   94  9.0    0.228    0.246    0.619    0.632
 pw_poisson_rebuild                  94  9.0    0.000    0.000    0.599    0.623
 ps_wavelet_create                    1 10.0    0.000    0.000    0.599    0.623
 RS_z_slice_distribution              1 11.0    0.500    0.585    0.599    0.623
 update_ks_atom                      94  8.0    0.082    0.237    0.451    0.621
 mp_irecv_dm3                      3396 11.5    0.255    0.611    0.255    0.611
 dbcsr_finalize                   17136 10.5    0.019    0.188    0.127    0.607
 cp_fm_symm                          94  7.0    0.569    0.585    0.569    0.585
 dbcsr_desymmetrize_deep            130  7.5    0.024    0.030    0.548    0.584
 pw_poisson_set                      95  8.9    0.002    0.003    0.562    0.574
 init_scf_run                         1  3.0    0.000    0.000    0.567    0.567
 fm_general_add_bse_4_buf_from_       1 10.0    0.510    0.556    0.510    0.556
 hybrid_alltoall_any                422 10.9    0.206    0.241    0.510    0.549
 fm_general_add_bse_1_setup           5 11.2    0.488    0.545    0.488    0.545
 fm_general_add_bse_4_buf_from_       1 10.0    0.473    0.531    0.473    0.531
 multiply_cannon_multrec           3576 11.1    0.398    0.524    0.401    0.527
 mp_isend_dm3                      3396 11.5    0.223    0.507    0.223    0.507
 make_m2s                           292  9.1    0.008    0.008    0.438    0.486
 dbt_communicate_buffer               8 12.6    0.003    0.003    0.317    0.483
 mp_sum_iv                          373  9.5    0.319    0.477    0.319    0.477
 pw_copy_to_array                   937 11.8    0.381    0.465    0.381    0.465
 dbt_remap                            8 10.0    0.002    0.003    0.454    0.454
 pw_integral_ab_c1d_c1d_gs           94  9.0    0.306    0.309    0.412    0.451
 mp_max_i                           698  3.0    0.211    0.439    0.211    0.439
 mult_B_with_W                        1  8.0    0.000    0.000    0.361    0.438
 make_images                        292 10.1    0.058    0.068    0.375    0.422
 fm_general_add_bse_5_comm_buff       5 11.2    0.000    0.000    0.273    0.417
 communicate_buffer                   5 12.2    0.001    0.001    0.273    0.417
 mp_isend_dv                      31456 12.1    0.246    0.417    0.246    0.417
 scf_env_initial_rho_setup            1  4.0    0.000    0.000    0.414    0.415
 qs_init_subsys                       1  2.0    0.011    0.015    0.408    0.408
 mp_wait                            149  9.0    0.211    0.408    0.211    0.408
 copy_fm_to_dbcsr                   190  8.0    0.001    0.001    0.366    0.401
 mp_bcast_dm                       3008  9.0    0.369    0.400    0.369    0.400
 pw_copy_from_array                1028 12.1    0.312    0.396    0.312    0.396
 dbt_split_blocks_generic            20  8.8    0.158    0.169    0.368    0.394
 cp_fm_create                       461  7.7    0.277    0.389    0.277    0.389
 mp2_main_alloc_hfx                   1  4.0    0.158    0.388    0.158    0.388
 fft_wrap_pw1pw2_30                 188 10.5    0.005    0.006    0.371    0.386
 array2fm_buffer_send                 4  8.0    0.297    0.384    0.297    0.384
 dbcsr_sym_matrix_vector_mult_l   10015  8.0    0.080    0.348    0.111    0.376
 mp_sum_i                            21  9.7    0.231    0.374    0.231    0.374
 restraint_control                    1  2.0    0.000    0.000    0.230    0.373
 mp_alltoall_z11v                   376 13.5    0.357    0.373    0.357    0.373
 pw_axpy                            935  9.3    0.334    0.372    0.334    0.372
 ao_to_mo_and_store_B_mult_bse_       6  7.0    0.000    0.000    0.287    0.367
 ao_to_mo_and_store_B_mult_gw_1       6  7.0    0.000    0.000    0.310    0.362
 mp_bcast_am_src                    201  7.0    0.255    0.306    0.277    0.353
 mp_bcast_i_src                     804  7.0    0.192    0.347    0.192    0.347
 qs_env_setup                         1  3.0    0.000    0.000    0.323    0.340
 qs_env_rebuild_pw_env                2  3.5    0.000    0.000    0.321    0.339
 pw_env_rebuild                       1  5.0    0.001    0.001    0.321    0.338
 dbcsr_merge_all                  16036 11.1    0.024    0.211    0.096    0.321
 rs_scatter_matrices                 94  7.0    0.001    0.006    0.289    0.305
 mp_alltoall_i22                    448  9.1    0.215    0.285    0.215    0.285
 allocate_matrices_gw                 1  7.0    0.002    0.002    0.191    0.282
 dbcsr_copy                       40949  7.5    0.154    0.180    0.244    0.274
 dbm_reserve_blocks                  68 14.1    0.252    0.272    0.252    0.272
 get_vec_sigma_x                      1  8.0    0.001    0.001    0.174    0.271
 dbcsr_iterator_start            119182  8.7    0.136    0.217    0.161    0.269
 make_images_data                   292 11.1    0.004    0.005    0.225    0.263
 ao_to_mo_and_store_B_E_Ex_gw_1       6  7.0    0.081    0.111    0.214    0.256
 truncate_BSE_matrices                1  8.0    0.000    0.000    0.172    0.245
 yz_to_xz                           188 14.0    0.017    0.019    0.227    0.241
 fm_general_add_bse_3_alloc_buf       5 11.2    0.173    0.240    0.173    0.240
 dbt_split_copyback                   4 10.0    0.169    0.184    0.217    0.236
 dbt_tas_reserve_blocks_index        60 13.0    0.005    0.006    0.207    0.229
 fm_general_add_bse_6_buffer_to       1 10.0    0.176    0.228    0.176    0.228
 mp_alltoall_i11v                  1084  9.3    0.220    0.221    0.220    0.221
 ao_to_mo_and_store_B_E_Ex_bse_       6  7.0    0.077    0.094    0.188    0.220
 postprocess_bse                      1  9.0    0.000    0.000    0.170    0.211
 dbt_nd_mp_comm                       8 11.0    0.000    0.000    0.176    0.210
 pw_zero                            560 10.3    0.181    0.206    0.181    0.206
 dbt_reserve_blocks_index            36 10.8    0.006    0.008    0.185    0.203
 mp_alltoall_i                       40 13.9    0.126    0.193    0.126    0.193
 fft_wrap_pw1pw2_10                 188 10.5    0.002    0.002    0.186    0.189
 pw_grid_setup                        4  6.0    0.000    0.000    0.171    0.188
 pw_grid_setup_internal               4  7.0    0.003    0.005    0.171    0.188
 -------------------------------------------------------------------------------

 The number of warnings for this run is : 2
 
 -------------------------------------------------------------------------------
  **** **** ******  **  PROGRAM ENDED AT                 2025-03-11 10:05:21.135
 ***** ** ***  *** **   PROGRAM RAN ON                              i04r06c01s10
 **    ****   ******    PROGRAM RAN BY                                   di38fab
 ***** **    ** ** **   PROGRAM PROCESS ID                                506450
  **** **  *******  **  PROGRAM STOPPED IN /hppfs/scratch/04/di38fab/05_MOL/aUKB
                                           qsEOTmq69kFe5R_nOg/5k_set_final_qzvp/
                                           HIJCEI/aug-cc-pVQZ
