SIRIUS 7.6.1, git hash: https://api.github.com/repos/electronic-structure/SIRIUS/git/ref/tags/v7.6.1
 DBCSR| CPU Multiplication driver                                           XSMM (U)
 DBCSR| Multrec recursion limit                                              512 (U)
 DBCSR| Multiplication stack size                                           1000 (D)
 DBCSR| Maximum elements for images                                    UNLIMITED (U)
 DBCSR| Multiplicative factor virtual images                                   1 (U)
 DBCSR| Use multiplication densification                                       T (D)
 DBCSR| Multiplication size stacks                                             3 (U)
 DBCSR| Use memory pool for CPU allocation                                     F (U)
 DBCSR| Number of 3D layers                                               SINGLE (U)
 DBCSR| Use MPI memory allocation                                              F (U)
 DBCSR| Use RMA algorithm                                                      F (U)
 DBCSR| Use Communication thread                                               T (U)
 DBCSR| Communication thread load                                             75 (D)
 DBCSR| MPI: My process id                                                     0
 DBCSR| MPI: Number of processes                                             128
 DBCSR| OMP: Current number of threads                                         4
 DBCSR| OMP: Max number of threads                                             4
 DBCSR| Split modifier for TAS multiplication algorithm                  1.0E+00 (U)


  **** **** ******  **  PROGRAM STARTED AT               2025-04-21 18:26:43.309
 ***** ** ***  *** **   PROGRAM STARTED ON                              n2cn0365
 **    ****   ******    PROGRAM STARTED BY                              metdyn02
 ***** **    ** ** **   PROGRAM PROCESS ID                               2679027
  **** **  *******  **  PROGRAM STARTED IN /scratch/hpc-prf-metdyn/metdyn02_Remi
                                           /10_MOL/05_MOL/W4-11+ALK/h2s/DZVP/TDD
                                           FT/RILIM

 CP2K| version string:                 CP2K version 2025.1 (Development Version)
 CP2K| source code revision number:                                  git:4803c37
 CP2K| cp2kflags: omp libint fftw3 libxc libgrpp elpa parallel scalapack mpi_f08
 CP2K|             cosma xsmm plumed2 spglib sirius libvori libbqb libvdwxc hdf5
 CP2K| is freely available from                            https://www.cp2k.org/
 CP2K| Program compiled at                         Thu Apr 10 12:05:05 CEST 2025
 CP2K| Program compiled on                                              n2login1
 CP2K| Program compiled for                                                local
 CP2K| Data directory path    /opt/software/pc2/EB-SW/software/CP2K/2024.1-foss-
 CP2K| Input file name                                                    GW.inp

 GLOBAL| Force Environment number                                              1
 GLOBAL| Basis set file name            /scratch/hpc-prf-metdyn/metdyn02_Remi/BA
 GLOBAL| Potential file name            /pc2/groups/hpc-prf-metdyn/metdyn02_Remi
 GLOBAL| MM Potential file name                                     MM_POTENTIAL
 GLOBAL| Coordinate file name                                      __STD_INPUT__
 GLOBAL| Method name                                                        CP2K
 GLOBAL| Project name                                                       MoS2
 GLOBAL| Run type                                                         ENERGY
 GLOBAL| FFT library                                                       FFTW3
 GLOBAL| Diagonalization library                                            ELPA
 GLOBAL| DGEMM library                                                      BLAS
 GLOBAL| Minimum number of eigenvectors for ELPA usage                        16
 GLOBAL| Orthonormality check for eigenvectors                          DISABLED
 GLOBAL| Matrix multiplication library                                     COSMA
 GLOBAL| All-to-all communication in single precision                          F
 GLOBAL| FFTs using library dependent lengths                                  F
 GLOBAL| Grid backend                                                       AUTO
 GLOBAL| Global print level                                               MEDIUM
 GLOBAL| MPI I/O enabled                                                       T
 GLOBAL| Total number of message passing processes                           128
 GLOBAL| Number of threads for this process                                    4
 GLOBAL| This output is from process                                           0
 GLOBAL| OpenMP stack size per thread (OMP_STACKSIZE)                    default
 GLOBAL| CPU model name                          AMD EPYC 7763 64-Core Processor
 GLOBAL| CPUID                                                              1002

 MEMORY| system memory details [Kb]
 MEMORY|                        rank 0           min           max       average
 MEMORY| MemTotal            263899264     263899256     263899264     263899261
 MEMORY| MemFree             244438680     244100256     244466908     244342072
 MEMORY| Buffers                 34276         34276        297684        187521
 MEMORY| Cached                6771588       6545648       6797584       6680975
 MEMORY| Slab                  2195220       2173608       2316140       2229204
 MEMORY| SReclaimable           341728        341728        409656        367231
 MEMORY| MemLikelyFree       251586272     251432540     251723164     251577799


 *** Fundamental physical constants (SI units) ***

 *** Literature: B. J. Mohr and B. N. Taylor,
 ***             CODATA recommended values of the fundamental physical
 ***             constants: 2006, Web Version 5.1
 ***             http://physics.nist.gov/constants

 Speed of light in vacuum [m/s]                             2.99792458000000E+08
 Magnetic constant or permeability of vacuum [N/A**2]       1.25663706143592E-06
 Electric constant or permittivity of vacuum [F/m]          8.85418781762039E-12
 Planck constant (h) [J*s]                                  6.62606896000000E-34
 Planck constant (h-bar) [J*s]                              1.05457162825177E-34
 Elementary charge [C]                                      1.60217648700000E-19
 Electron mass [kg]                                         9.10938215000000E-31
 Electron g factor [ ]                                     -2.00231930436220E+00
 Proton mass [kg]                                           1.67262163700000E-27
 Fine-structure constant                                    7.29735253760000E-03
 Rydberg constant [1/m]                                     1.09737315685270E+07
 Avogadro constant [1/mol]                                  6.02214179000000E+23
 Boltzmann constant [J/K]                                   1.38065040000000E-23
 Atomic mass unit [kg]                                      1.66053878200000E-27
 Bohr radius [m]                                            5.29177208590000E-11

 *** Conversion factors ***

 [u] -> [a.u.]                                              1.82288848426455E+03
 [Angstrom] -> [Bohr] = [a.u.]                              1.88972613288564E+00
 [a.u.] = [Bohr] -> [Angstrom]                              5.29177208590000E-01
 [a.u.] -> [s]                                              2.41888432650478E-17
 [a.u.] -> [fs]                                             2.41888432650478E-02
 [a.u.] -> [J]                                              4.35974393937059E-18
 [a.u.] -> [N]                                              8.23872205491840E-08
 [a.u.] -> [K]                                              3.15774647902944E+05
 [a.u.] -> [kJ/mol]                                         2.62549961709828E+03
 [a.u.] -> [kcal/mol]                                       6.27509468713739E+02
 [a.u.] -> [Pa]                                             2.94210107994716E+13
 [a.u.] -> [bar]                                            2.94210107994716E+08
 [a.u.] -> [atm]                                            2.90362800883016E+08
 [a.u.] -> [eV]                                             2.72113838565563E+01
 [a.u.] -> [Hz]                                             6.57968392072181E+15
 [a.u.] -> [1/cm] (wave numbers)                            2.19474631370540E+05
 [a.u./Bohr**2] -> [1/cm]                                   5.14048714338585E+03
 

 CELL_TOP| Volume [angstrom^3]:                                     27000.000000
 CELL_TOP| Vector a [angstrom    30.000     0.000     0.000   |a| =    30.000000
 CELL_TOP| Vector b [angstrom     0.000    30.000     0.000   |b| =    30.000000
 CELL_TOP| Vector c [angstrom     0.000     0.000    30.000   |c| =    30.000000
 CELL_TOP| Angle (b,c), alpha [degree]:                                90.000000
 CELL_TOP| Angle (a,c), beta  [degree]:                                90.000000
 CELL_TOP| Angle (a,b), gamma [degree]:                                90.000000
 CELL_TOP| Numerically orthorhombic:                                         YES
 CELL_TOP| Periodicity                                                      NONE

 GENERATE|  Preliminary Number of Bonds generated:                             0
 GENERATE|  Achieved consistency in connectivity generation.

 CELL| Volume [angstrom^3]:                                         27000.000000
 CELL| Vector a [angstrom]:      30.000     0.000     0.000   |a| =    30.000000
 CELL| Vector b [angstrom]:       0.000    30.000     0.000   |b| =    30.000000
 CELL| Vector c [angstrom]:       0.000     0.000    30.000   |c| =    30.000000
 CELL| Angle (b,c), alpha [degree]:                                    90.000000
 CELL| Angle (a,c), beta  [degree]:                                    90.000000
 CELL| Angle (a,b), gamma [degree]:                                    90.000000
 CELL| Numerically orthorhombic:                                             YES
 CELL| Periodicity                                                          NONE

 CELL_REF| Volume [angstrom^3]:                                     27000.000000
 CELL_REF| Vector a [angstrom    30.000     0.000     0.000   |a| =    30.000000
 CELL_REF| Vector b [angstrom     0.000    30.000     0.000   |b| =    30.000000
 CELL_REF| Vector c [angstrom     0.000     0.000    30.000   |c| =    30.000000
 CELL_REF| Angle (b,c), alpha [degree]:                                90.000000
 CELL_REF| Angle (a,c), beta  [degree]:                                90.000000
 CELL_REF| Angle (a,b), gamma [degree]:                                90.000000
 CELL_REF| Numerically orthorhombic:                                         YES
 CELL_REF| Periodicity                                                      NONE

 *******************************************************************************
 *******************************************************************************
 **                                                                           **
 **     #####                         ##              ##                      **
 **    ##   ##            ##          ##              ##                      **
 **   ##     ##                       ##            ######                    **
 **   ##     ##  ##   ##  ##   #####  ##  ##   ####   ##    #####    #####    **
 **   ##     ##  ##   ##  ##  ##      ## ##   ##      ##   ##   ##  ##   ##   **
 **   ##  ## ##  ##   ##  ##  ##      ####     ###    ##   ######   ######    **
 **    ##  ###   ##   ##  ##  ##      ## ##      ##   ##   ##       ##        **
 **     #######   #####   ##   #####  ##  ##  ####    ##    #####   ##        **
 **           ##                                                    ##        **
 **                                                                           **
 **                                                ... make the atoms dance   **
 **                                                                           **
 **            Copyright (C) by CP2K developers group (2000-2025)             **
 **                      J. Chem. Phys. 152, 194103 (2020)                    **
 **                                                                           **
 *******************************************************************************

 DFT| Spin restricted Kohn-Sham (RKS) calculation                            RKS
 DFT| Multiplicity                                                             1
 DFT| Number of spin states                                                    1
 DFT| Charge                                                                   0
 DFT| Self-interaction correction (SIC)                                       NO
 DFT| Cutoffs: density                                              1.000000E-10
 DFT|          gradient                                             1.000000E-10
 DFT|          tau                                                  1.000000E-10
 DFT|          cutoff_smoothing_range                               0.000000E+00
 DFT| XC density smoothing                                                  NONE
 DFT| XC derivatives                                                          PW

 FUNCTIONAL| PBE:
 FUNCTIONAL| J.P.Perdew, K.Burke, M.Ernzerhof, Phys. Rev. Letter, vol. 77, n 18,
 FUNCTIONAL|  pp. 3865-3868, (1996)sx=0.750sc=1.000{spin unpolarized}           


 QS| Method:                                                                GAPW
 QS| Density plane wave grid type                        NON-SPHERICAL FULLSPACE
 QS| Number of grid levels:                                                    4
 QS| Density cutoff [a.u.]:                                                250.0
 QS| Multi grid cutoff [a.u.]: 1) grid level                               250.0
 QS|                           2) grid level                                83.3
 QS|                           3) grid level                                27.8
 QS|                           4) grid level                                 9.3
 QS| Grid level progression factor:                                          3.0
 QS| Relative density cutoff [a.u.]:                                        50.0
 QS| Interaction thresholds: eps_pgf_orb:                                1.0E-12
 QS|                         eps_filter_matrix:                          0.0E+00
 QS|                         eps_core_charge:                            1.0E-14
 QS|                         eps_rho_gspace:                             1.0E-12
 QS|                         eps_rho_rspace:                             1.0E-12
 QS|                         eps_gvg_rspace:                             1.0E-06
 QS|                         eps_ppl:                                    1.0E-02
 QS|                         eps_ppnl:                                   1.0E-08
 QS| GAPW|      One center basis from orbital basis primitives
 QS| GAPW|                   eps_fit:                                    1.0E-04
 QS| GAPW|                   eps_iso:                                    1.0E-12
 QS| GAPW|                   eps_svd:                                    1.0E-08
 QS| GAPW|                   eps_cpc:                                    1.0E-12
 QS| GAPW|   atom-r-grid: quadrature:                                     GC_LOG
 QS| GAPW|      atom-s-grid:  max l :                                          6
 QS| GAPW|      max_l_rho0 :                                                   2


 ATOMIC KIND INFORMATION

  1. Atomic kind: S                                     Number of atoms:       1

     Orbital Basis Set                                        aug-DZVP-MOLOPT-ae

       Number of orbital shell sets:                                           3
       Number of orbital shells:                                              12
       Number of primitive Cartesian functions:                               18
       Number of Cartesian basis functions:                                   39
       Number of spherical basis functions:                                   34
       Norm type:                                                              2

       Normalised Cartesian orbitals:

                        Set   Shell   Orbital            Exponent    Coefficient

                          1       1    1s                0.070000       0.160238
                                                         0.132026      -0.106319
                                                         0.461903      -0.064590
                                                         2.043261       0.000000
                                                         6.030247       0.000000
                                                        18.817576       0.000000
                                                        61.243244       0.000000
                                                       262.037180       0.000000

                          1       2    2px               0.070000       0.000000
                                                         0.132026      -0.006041
                                                         0.461903       0.020884
                                                         2.043261      -1.163342
                                                         6.030247      -7.192527
                                                        18.817576     -14.902856
                                                        61.243244     -16.017959
                                                       262.037180     -14.606063
                          1       2    2py               0.070000       0.000000
                                                         0.132026      -0.006041
                                                         0.461903       0.020884
                                                         2.043261      -1.163342
                                                         6.030247      -7.192527
                                                        18.817576     -14.902856
                                                        61.243244     -16.017959
                                                       262.037180     -14.606063
                          1       2    2pz               0.070000       0.000000
                                                         0.132026      -0.006041
                                                         0.461903       0.020884
                                                         2.043261      -1.163342
                                                         6.030247      -7.192527
                                                        18.817576     -14.902856
                                                        61.243244     -16.017959
                                                       262.037180     -14.606063

                          1       3    3px               0.070000       0.000000
                                                         0.132026       0.013372
                                                         0.461903       0.460806
                                                         2.043261       0.527227
                                                         6.030247      -0.800963
                                                        18.817576       1.692650
                                                        61.243244      -2.127051
                                                       262.037180       6.627568
                          1       3    3py               0.070000       0.000000
                                                         0.132026       0.013372
                                                         0.461903       0.460806
                                                         2.043261       0.527227
                                                         6.030247      -0.800963
                                                        18.817576       1.692650
                                                        61.243244      -2.127051
                                                       262.037180       6.627568
                          1       3    3pz               0.070000       0.000000
                                                         0.132026       0.013372
                                                         0.461903       0.460806
                                                         2.043261       0.527227
                                                         6.030247      -0.800963
                                                        18.817576       1.692650
                                                        61.243244      -2.127051
                                                       262.037180       6.627568

                          1       4    4px               0.070000       0.000000
                                                         0.132026       0.122461
                                                         0.461903      -0.074630
                                                         2.043261      -0.266435
                                                         6.030247      -0.600117
                                                        18.817576      -2.837173
                                                        61.243244       0.679283
                                                       262.037180      -9.723876
                          1       4    4py               0.070000       0.000000
                                                         0.132026       0.122461
                                                         0.461903      -0.074630
                                                         2.043261      -0.266435
                                                         6.030247      -0.600117
                                                        18.817576      -2.837173
                                                        61.243244       0.679283
                                                       262.037180      -9.723876
                          1       4    4pz               0.070000       0.000000
                                                         0.132026       0.122461
                                                         0.461903      -0.074630
                                                         2.043261      -0.266435
                                                         6.030247      -0.600117
                                                        18.817576      -2.837173
                                                        61.243244       0.679283
                                                       262.037180      -9.723876

                          1       5    5px               0.070000      -0.010761
                                                         0.132026      -0.065366
                                                         0.461903       0.662552
                                                         2.043261       0.000000
                                                         6.030247       0.000000
                                                        18.817576       0.000000
                                                        61.243244       0.000000
                                                       262.037180       0.000000
                          1       5    5py               0.070000      -0.010761
                                                         0.132026      -0.065366
                                                         0.461903       0.662552
                                                         2.043261       0.000000
                                                         6.030247       0.000000
                                                        18.817576       0.000000
                                                        61.243244       0.000000
                                                       262.037180       0.000000
                          1       5    5pz               0.070000      -0.010761
                                                         0.132026      -0.065366
                                                         0.461903       0.662552
                                                         2.043261       0.000000
                                                         6.030247       0.000000
                                                        18.817576       0.000000
                                                        61.243244       0.000000
                                                       262.037180       0.000000

                          1       6    3dx2              0.070000       0.000000
                                                         0.132026       0.010167
                                                         0.461903       0.321348
                                                         2.043261       1.422467
                                                         6.030247      -0.691425
                                                        18.817576       4.642944
                                                        61.243244     -11.887587
                                                       262.037180      63.210336
                          1       6    3dxy              0.070000       0.000000
                                                         0.132026       0.017609
                                                         0.461903       0.556591
                                                         2.043261       2.463785
                                                         6.030247      -1.197583
                                                        18.817576       8.041814
                                                        61.243244     -20.589904
                                                       262.037180     109.483513
                          1       6    3dxz              0.070000       0.000000
                                                         0.132026       0.017609
                                                         0.461903       0.556591
                                                         2.043261       2.463785
                                                         6.030247      -1.197583
                                                        18.817576       8.041814
                                                        61.243244     -20.589904
                                                       262.037180     109.483513
                          1       6    3dy2              0.070000       0.000000
                                                         0.132026       0.010167
                                                         0.461903       0.321348
                                                         2.043261       1.422467
                                                         6.030247      -0.691425
                                                        18.817576       4.642944
                                                        61.243244     -11.887587
                                                       262.037180      63.210336
                          1       6    3dyz              0.070000       0.000000
                                                         0.132026       0.017609
                                                         0.461903       0.556591
                                                         2.043261       2.463785
                                                         6.030247      -1.197583
                                                        18.817576       8.041814
                                                        61.243244     -20.589904
                                                       262.037180     109.483513
                          1       6    3dz2              0.070000       0.000000
                                                         0.132026       0.010167
                                                         0.461903       0.321348
                                                         2.043261       1.422467
                                                         6.030247      -0.691425
                                                        18.817576       4.642944
                                                        61.243244     -11.887587
                                                       262.037180      63.210336

                          1       7    4dx2              0.070000       0.004993
                                                         0.132026       0.031835
                                                         0.461903       0.041246
                                                         2.043261       0.000000
                                                         6.030247       0.000000
                                                        18.817576       0.000000
                                                        61.243244       0.000000
                                                       262.037180       0.000000
                          1       7    4dxy              0.070000       0.008648
                                                         0.132026       0.055140
                                                         0.461903       0.071440
                                                         2.043261       0.000000
                                                         6.030247       0.000000
                                                        18.817576       0.000000
                                                        61.243244       0.000000
                                                       262.037180       0.000000
                          1       7    4dxz              0.070000       0.008648
                                                         0.132026       0.055140
                                                         0.461903       0.071440
                                                         2.043261       0.000000
                                                         6.030247       0.000000
                                                        18.817576       0.000000
                                                        61.243244       0.000000
                                                       262.037180       0.000000
                          1       7    4dy2              0.070000       0.004993
                                                         0.132026       0.031835
                                                         0.461903       0.041246
                                                         2.043261       0.000000
                                                         6.030247       0.000000
                                                        18.817576       0.000000
                                                        61.243244       0.000000
                                                       262.037180       0.000000
                          1       7    4dyz              0.070000       0.008648
                                                         0.132026       0.055140
                                                         0.461903       0.071440
                                                         2.043261       0.000000
                                                         6.030247       0.000000
                                                        18.817576       0.000000
                                                        61.243244       0.000000
                                                       262.037180       0.000000
                          1       7    4dz2              0.070000       0.004993
                                                         0.132026       0.031835
                                                         0.461903       0.041246
                                                         2.043261       0.000000
                                                         6.030247       0.000000
                                                        18.817576       0.000000
                                                        61.243244       0.000000
                                                       262.037180       0.000000

                          1       8    4fx3              0.070000       0.001179
                                                         0.132026       0.004915
                                                         0.461903       0.162520
                                                         2.043261       0.000000
                                                         6.030247       0.000000
                                                        18.817576       0.000000
                                                        61.243244       0.000000
                                                       262.037180       0.000000
                          1       8    4fx2y             0.070000       0.002636
                                                         0.132026       0.010991
                                                         0.461903       0.363406
                                                         2.043261       0.000000
                                                         6.030247       0.000000
                                                        18.817576       0.000000
                                                        61.243244       0.000000
                                                       262.037180       0.000000
                          1       8    4fx2z             0.070000       0.002636
                                                         0.132026       0.010991
                                                         0.461903       0.363406
                                                         2.043261       0.000000
                                                         6.030247       0.000000
                                                        18.817576       0.000000
                                                        61.243244       0.000000
                                                       262.037180       0.000000
                          1       8    4fxy2             0.070000       0.002636
                                                         0.132026       0.010991
                                                         0.461903       0.363406
                                                         2.043261       0.000000
                                                         6.030247       0.000000
                                                        18.817576       0.000000
                                                        61.243244       0.000000
                                                       262.037180       0.000000
                          1       8    4fxyz             0.070000       0.004567
                                                         0.132026       0.019037
                                                         0.461903       0.629438
                                                         2.043261       0.000000
                                                         6.030247       0.000000
                                                        18.817576       0.000000
                                                        61.243244       0.000000
                                                       262.037180       0.000000
                          1       8    4fxz2             0.070000       0.002636
                                                         0.132026       0.010991
                                                         0.461903       0.363406
                                                         2.043261       0.000000
                                                         6.030247       0.000000
                                                        18.817576       0.000000
                                                        61.243244       0.000000
                                                       262.037180       0.000000
                          1       8    4fy3              0.070000       0.001179
                                                         0.132026       0.004915
                                                         0.461903       0.162520
                                                         2.043261       0.000000
                                                         6.030247       0.000000
                                                        18.817576       0.000000
                                                        61.243244       0.000000
                                                       262.037180       0.000000
                          1       8    4fy2z             0.070000       0.002636
                                                         0.132026       0.010991
                                                         0.461903       0.363406
                                                         2.043261       0.000000
                                                         6.030247       0.000000
                                                        18.817576       0.000000
                                                        61.243244       0.000000
                                                       262.037180       0.000000
                          1       8    4fyz2             0.070000       0.002636
                                                         0.132026       0.010991
                                                         0.461903       0.363406
                                                         2.043261       0.000000
                                                         6.030247       0.000000
                                                        18.817576       0.000000
                                                        61.243244       0.000000
                                                       262.037180       0.000000
                          1       8    4fz3              0.070000       0.001179
                                                         0.132026       0.004915
                                                         0.461903       0.162520
                                                         2.043261       0.000000
                                                         6.030247       0.000000
                                                        18.817576       0.000000
                                                        61.243244       0.000000
                                                       262.037180       0.000000

                          2       1    1s               45.482850      -1.175639
                                                         4.876333       1.431452
                                                         1.864066       0.572778
                                                         0.430250      -0.034078
                                                         0.152872       0.004775

                          2       2    2s               45.482850      -0.314552
                                                         4.876333       0.236776
                                                         1.864066      -0.009167
                                                         0.430250       0.282804
                                                         0.152872       0.044200

                          2       3    3s               45.482850       0.143312
                                                         4.876333      -0.094249
                                                         1.864066      -0.118759
                                                         0.430250      -0.172982
                                                         0.152872       0.236834

                          3       1    1s             9184.968607      -3.488008
                                                      1381.514008      -6.811623
                                                       313.892819      -9.517673
                                                        87.514579     -10.059465
                                                        25.931396      -3.470689

     RI Auxiliary Basis Set             RI_aug-DZVP-MOLOPT-ae_N_RI_112_s_p_d_f_g

       Number of orbital shell sets:                                          26
       Number of orbital shells:                                              26
       Number of primitive Cartesian functions:                               26
       Number of Cartesian basis functions:                                  150
       Number of spherical basis functions:                                  112
       Norm type:                                                              2

       Normalised Cartesian orbitals:

                        Set   Shell   Orbital            Exponent    Coefficient

                          1       1   19fx3              0.196223       0.037726
                          1       1   19fx2y             0.196223       0.084358
                          1       1   19fx2z             0.196223       0.084358
                          1       1   19fxy2             0.196223       0.084358
                          1       1   19fxyz             0.196223       0.146112
                          1       1   19fxz2             0.196223       0.084358
                          1       1   19fy3              0.196223       0.037726
                          1       1   19fy2z             0.196223       0.084358
                          1       1   19fyz2             0.196223       0.084358
                          1       1   19fz3              0.196223       0.037726

                          2       1    1s                0.274731       0.270452

                          3       1    8px               0.297410       0.313065
                          3       1    8py               0.297410       0.313065
                          3       1    8pz               0.297410       0.313065

                          4       1   14dx2              0.342012       0.251757
                          4       1   14dxy              0.342012       0.436056
                          4       1   14dxz              0.342012       0.436056
                          4       1   14dy2              0.342012       0.251757
                          4       1   14dyz              0.342012       0.436056
                          4       1   14dz2              0.342012       0.251757

                          5       1   24gx4              0.391475       0.084405
                          5       1   24gx3y             0.391475       0.223316
                          5       1   24gx3z             0.391475       0.223316
                          5       1   24gx2y2            0.391475       0.288299
                          5       1   24gx2yz            0.391475       0.499349
                          5       1   24gx2z2            0.391475       0.288299
                          5       1   24gxy3             0.391475       0.223316
                          5       1   24gxy2z            0.391475       0.499349
                          5       1   24gxyz2            0.391475       0.499349
                          5       1   24gxz3             0.391475       0.223316
                          5       1   24gy4              0.391475       0.084405
                          5       1   24gy3z             0.391475       0.223316
                          5       1   24gy2z2            0.391475       0.288299
                          5       1   24gyz3             0.391475       0.223316
                          5       1   24gz4              0.391475       0.084405

                          6       1    2s                0.450192       0.391705

                          7       1   20fx3              0.475207       0.276021
                          7       1   20fx2y             0.475207       0.617201
                          7       1   20fx2z             0.475207       0.617201
                          7       1   20fxy2             0.475207       0.617201
                          7       1   20fxyz             0.475207       1.069024
                          7       1   20fxz2             0.475207       0.617201
                          7       1   20fy3              0.475207       0.276021
                          7       1   20fy2z             0.475207       0.617201
                          7       1   20fyz2             0.475207       0.617201
                          7       1   20fz3              0.475207       0.276021

                          8       1    9px               0.556661       0.685375
                          8       1    9py               0.556661       0.685375
                          8       1    9pz               0.556661       0.685375

                          9       1   25gx4              0.798707       0.599792
                          9       1   25gx3y             0.798707       1.586901
                          9       1   25gx3z             0.798707       1.586901
                          9       1   25gx2y2            0.798707       2.048680
                          9       1   25gx2yz            0.798707       3.548418
                          9       1   25gx2z2            0.798707       2.048680
                          9       1   25gxy3             0.798707       1.586901
                          9       1   25gxy2z            0.798707       3.548418
                          9       1   25gxyz2            0.798707       3.548418
                          9       1   25gxz3             0.798707       1.586901
                          9       1   25gy4              0.798707       0.599792
                          9       1   25gy3z             0.798707       1.586901
                          9       1   25gy2z2            0.798707       2.048680
                          9       1   25gyz3             0.798707       1.586901
                          9       1   25gz4              0.798707       0.599792

                         10       1   15dx2              0.868904       1.287093
                         10       1   15dxy              0.868904       2.229311
                         10       1   15dxz              0.868904       2.229311
                         10       1   15dy2              0.868904       1.287093
                         10       1   15dyz              0.868904       2.229311
                         10       1   15dz2              0.868904       1.287093

                         11       1   21fx3              1.110564       1.863920
                         11       1   21fx2y             1.110564       4.167853
                         11       1   21fx2z             1.110564       4.167853
                         11       1   21fxy2             1.110564       4.167853
                         11       1   21fxyz             1.110564       7.218933
                         11       1   21fxz2             1.110564       4.167853
                         11       1   21fy3              1.110564       1.863920
                         11       1   21fy2z             1.110564       4.167853
                         11       1   21fyz2             1.110564       4.167853
                         11       1   21fz3              1.110564       1.863920

                         12       1    3s                1.576636       1.002787

                         13       1   10px               1.661104       2.688042
                         13       1   10py               1.661104       2.688042
                         13       1   10pz               1.661104       2.688042

                         14       1   26gx4              1.699549       4.784683
                         14       1   26gx3y             1.699549      12.659081
                         14       1   26gx3z             1.699549      12.659081
                         14       1   26gx2y2            1.699549      16.342804
                         14       1   26gx2yz            1.699549      28.306566
                         14       1   26gx2z2            1.699549      16.342804
                         14       1   26gxy3             1.699549      12.659081
                         14       1   26gxy2z            1.699549      28.306566
                         14       1   26gxyz2            1.699549      28.306566
                         14       1   26gxz3             1.699549      12.659081
                         14       1   26gy4              1.699549       4.784683
                         14       1   26gy3z             1.699549      12.659081
                         14       1   26gy2z2            1.699549      16.342804
                         14       1   26gyz3             1.699549      12.659081
                         14       1   26gz4              1.699549       4.784683

                         15       1   16dx2              1.790525       4.561684
                         15       1   16dxy              1.790525       7.901069
                         15       1   16dxz              1.790525       7.901069
                         15       1   16dy2              1.790525       4.561684
                         15       1   16dyz              1.790525       7.901069
                         15       1   16dz2              1.790525       4.561684

                         16       1   22fx3              2.481450      11.377374
                         16       1   22fx2y             2.481450      25.440582
                         16       1   22fx2z             2.481450      25.440582
                         16       1   22fxy2             2.481450      25.440582
                         16       1   22fxyz             2.481450      44.064381
                         16       1   22fxz2             2.481450      25.440582
                         16       1   22fy3              2.481450      11.377374
                         16       1   22fy2z             2.481450      25.440582
                         16       1   22fyz2             2.481450      25.440582
                         16       1   22fz3              2.481450      11.377374

                         17       1   23fx3              5.859468      78.638518
                         17       1   23fx2y             5.859468     175.841073
                         17       1   23fx2z             5.859468     175.841073
                         17       1   23fxy2             5.859468     175.841073
                         17       1   23fxyz             5.859468     304.565672
                         17       1   23fxz2             5.859468     175.841073
                         17       1   23fy3              5.859468      78.638518
                         17       1   23fy2z             5.859468     175.841073
                         17       1   23fyz2             5.859468     175.841073
                         17       1   23fz3              5.859468      78.638518

                         18       1    4s                6.121014       2.773496

                         19       1   11px               6.368076      14.419507
                         19       1   11py               6.368076      14.419507
                         19       1   11pz               6.368076      14.419507

                         20       1   17dx2              8.086646      63.826974
                         20       1   17dxy              8.086646     110.551561
                         20       1   17dxz              8.086646     110.551561
                         20       1   17dy2              8.086646      63.826974
                         20       1   17dyz              8.086646     110.551561
                         20       1   17dz2              8.086646      63.826974

                         21       1   12px              21.758493      66.984774
                         21       1   12py              21.758493      66.984774
                         21       1   12pz              21.758493      66.984774

                         22       1    5s               24.978089       7.963051

                         23       1   18dx2             31.343162     683.375459
                         23       1   18dxy             31.343162    1183.641015
                         23       1   18dxz             31.343162    1183.641015
                         23       1   18dy2             31.343162     683.375459
                         23       1   18dyz             31.343162    1183.641015
                         23       1   18dz2             31.343162     683.375459

                         24       1   13px              70.358059     290.457368
                         24       1   13py              70.358059     290.457368
                         24       1   13pz              70.358059     290.457368

                         25       1    6s               95.478130      21.768977

                         26       1    7s              351.262033      57.827378

       Atomic covalent radius [Angstrom]:                                  1.020

       Atomic van der Waals radius [Angstrom]:                             1.800

     The atoms of this atomic kind are PAW atoms (GAPW):
       Hard Gaussian function radius:                                      1.512
       Rho0 radius:                                                        1.512
       Maximum GTO radius used for PAW projector construction:            24.566

     GAPW Soft Basis Set                                 aug-DZVP-MOLOPT-ae_soft

       Number of orbital shell sets:                                           3
       Number of orbital shells:                                              12
       Number of primitive Cartesian functions:                                7
       Number of Cartesian basis functions:                                   39
       Number of spherical basis functions:                                   34
       Norm type:                                                              2

       Normalised Cartesian orbitals:

                        Set   Shell   Orbital            Exponent    Coefficient

                          1       1    1s                0.070000       0.160238
                                                         0.132026      -0.106319
                                                         0.461903      -0.064590
                                                         2.043261       0.000000

                          1       2    2px               0.070000       0.000000
                                                         0.132026      -0.006041
                                                         0.461903       0.020884
                                                         2.043261      -1.163342
                          1       2    2py               0.070000       0.000000
                                                         0.132026      -0.006041
                                                         0.461903       0.020884
                                                         2.043261      -1.163342
                          1       2    2pz               0.070000       0.000000
                                                         0.132026      -0.006041
                                                         0.461903       0.020884
                                                         2.043261      -1.163342

                          1       3    3px               0.070000       0.000000
                                                         0.132026       0.013372
                                                         0.461903       0.460806
                                                         2.043261       0.527227
                          1       3    3py               0.070000       0.000000
                                                         0.132026       0.013372
                                                         0.461903       0.460806
                                                         2.043261       0.527227
                          1       3    3pz               0.070000       0.000000
                                                         0.132026       0.013372
                                                         0.461903       0.460806
                                                         2.043261       0.527227

                          1       4    4px               0.070000       0.000000
                                                         0.132026       0.122461
                                                         0.461903      -0.074630
                                                         2.043261      -0.266435
                          1       4    4py               0.070000       0.000000
                                                         0.132026       0.122461
                                                         0.461903      -0.074630
                                                         2.043261      -0.266435
                          1       4    4pz               0.070000       0.000000
                                                         0.132026       0.122461
                                                         0.461903      -0.074630
                                                         2.043261      -0.266435

                          1       5    5px               0.070000      -0.010761
                                                         0.132026      -0.065366
                                                         0.461903       0.662552
                                                         2.043261       0.000000
                          1       5    5py               0.070000      -0.010761
                                                         0.132026      -0.065366
                                                         0.461903       0.662552
                                                         2.043261       0.000000
                          1       5    5pz               0.070000      -0.010761
                                                         0.132026      -0.065366
                                                         0.461903       0.662552
                                                         2.043261       0.000000

                          1       6    3dx2              0.070000       0.000000
                                                         0.132026       0.010167
                                                         0.461903       0.321348
                                                         2.043261       1.422467
                          1       6    3dxy              0.070000       0.000000
                                                         0.132026       0.017609
                                                         0.461903       0.556591
                                                         2.043261       2.463785
                          1       6    3dxz              0.070000       0.000000
                                                         0.132026       0.017609
                                                         0.461903       0.556591
                                                         2.043261       2.463785
                          1       6    3dy2              0.070000       0.000000
                                                         0.132026       0.010167
                                                         0.461903       0.321348
                                                         2.043261       1.422467
                          1       6    3dyz              0.070000       0.000000
                                                         0.132026       0.017609
                                                         0.461903       0.556591
                                                         2.043261       2.463785
                          1       6    3dz2              0.070000       0.000000
                                                         0.132026       0.010167
                                                         0.461903       0.321348
                                                         2.043261       1.422467

                          1       7    4dx2              0.070000       0.004993
                                                         0.132026       0.031835
                                                         0.461903       0.041246
                                                         2.043261       0.000000
                          1       7    4dxy              0.070000       0.008648
                                                         0.132026       0.055140
                                                         0.461903       0.071440
                                                         2.043261       0.000000
                          1       7    4dxz              0.070000       0.008648
                                                         0.132026       0.055140
                                                         0.461903       0.071440
                                                         2.043261       0.000000
                          1       7    4dy2              0.070000       0.004993
                                                         0.132026       0.031835
                                                         0.461903       0.041246
                                                         2.043261       0.000000
                          1       7    4dyz              0.070000       0.008648
                                                         0.132026       0.055140
                                                         0.461903       0.071440
                                                         2.043261       0.000000
                          1       7    4dz2              0.070000       0.004993
                                                         0.132026       0.031835
                                                         0.461903       0.041246
                                                         2.043261       0.000000

                          1       8    4fx3              0.070000       0.001179
                                                         0.132026       0.004915
                                                         0.461903       0.162520
                                                         2.043261       0.000000
                          1       8    4fx2y             0.070000       0.002636
                                                         0.132026       0.010991
                                                         0.461903       0.363406
                                                         2.043261       0.000000
                          1       8    4fx2z             0.070000       0.002636
                                                         0.132026       0.010991
                                                         0.461903       0.363406
                                                         2.043261       0.000000
                          1       8    4fxy2             0.070000       0.002636
                                                         0.132026       0.010991
                                                         0.461903       0.363406
                                                         2.043261       0.000000
                          1       8    4fxyz             0.070000       0.004567
                                                         0.132026       0.019037
                                                         0.461903       0.629438
                                                         2.043261       0.000000
                          1       8    4fxz2             0.070000       0.002636
                                                         0.132026       0.010991
                                                         0.461903       0.363406
                                                         2.043261       0.000000
                          1       8    4fy3              0.070000       0.001179
                                                         0.132026       0.004915
                                                         0.461903       0.162520
                                                         2.043261       0.000000
                          1       8    4fy2z             0.070000       0.002636
                                                         0.132026       0.010991
                                                         0.461903       0.363406
                                                         2.043261       0.000000
                          1       8    4fyz2             0.070000       0.002636
                                                         0.132026       0.010991
                                                         0.461903       0.363406
                                                         2.043261       0.000000
                          1       8    4fz3              0.070000       0.001179
                                                         0.132026       0.004915
                                                         0.461903       0.162520
                                                         2.043261       0.000000

                          2       1    1s                1.864066       0.572778
                                                         0.430250      -0.034078
                                                         0.152872       0.004775

                          2       2    2s                1.864066      -0.009167
                                                         0.430250       0.282804
                                                         0.152872       0.044200

                          2       3    3s                1.864066      -0.118759
                                                         0.430250      -0.172982
                                                         0.152872       0.236834

                          3       1    1s         

     AE Potential information for                                            ALL

       Description:                                       All-electron potential
                                          Krack, Parrinello, PCCP 2, 2105 (2000)

       Gaussian exponent of the core charge distribution:               2.834467
       Electronic configuration (s p d ...):                           6  10   0

  2. Atomic kind: H                                     Number of atoms:       2

     Orbital Basis Set                                        aug-DZVP-MOLOPT-ae

       Number of orbital shell sets:                                           1
       Number of orbital shells:                                               5
       Number of primitive Cartesian functions:                                5
       Number of Cartesian basis functions:                                    9
       Number of spherical basis functions:                                    9
       Norm type:                                                              2

       Normalised Cartesian orbitals:

                        Set   Shell   Orbital            Exponent    Coefficient

                          1       1    2s                0.035000       0.000000
                                                         0.111920       0.009149
                                                         0.374948       0.205449
                                                         1.446686       0.373852
                                                        12.248855       0.310040

                          1       2    3s                0.035000       0.000000
                                                         0.111920       0.143650
                                                         0.374948       0.007287
                                                         1.446686      -0.188851
                                                        12.248855      -0.144753

                          1       3    4s                0.035000       0.090463
                                                         0.111920      -0.203934
                                                         0.374948      -0.000376
                                                         1.446686      -0.000051
                                                        12.248855       0.000000

                          1       4    3px               0.035000       0.000000
                                                         0.111920       0.007225
                                                         0.374948       0.280770
                                                         1.446686       0.896497
                                                        12.248855      -0.764411
                          1       4    3py               0.035000       0.000000
                                                         0.111920       0.007225
                                                         0.374948       0.280770
                                                         1.446686       0.896497
                                                        12.248855      -0.764411
                          1       4    3pz               0.035000       0.000000
                                                         0.111920       0.007225
                                                         0.374948       0.280770
                                                         1.446686       0.896497
                                                        12.248855      -0.764411

                          1       5    4px               0.035000       0.011331
                                                         0.111920       0.048737
                                                         0.374948       0.028490
                                                         1.446686       0.035587
                                                        12.248855       0.000000
                          1       5    4py               0.035000       0.011331
                                                         0.111920       0.048737
                                                         0.374948       0.028490
                                                         1.446686       0.035587
                                                        12.248855       0.000000
                          1       5    4pz               0.035000       0.011331
                                                         0.111920       0.048737
                                                         0.374948       0.028490
                                                         1.446686       0.035587
                                                        12.248855       0.000000

     RI Auxiliary Basis Set             RI_aug-DZVP-MOLOPT-ae_N_RI_047_s_p_d_f_g

       Number of orbital shell sets:                                          17
       Number of orbital shells:                                              17
       Number of primitive Cartesian functions:                               17
       Number of Cartesian basis functions:                                   53
       Number of spherical basis functions:                                   47
       Norm type:                                                              2

       Normalised Cartesian orbitals:

                        Set   Shell   Orbital            Exponent    Coefficient

                          1       1    1s                0.236911       0.242019

                          2       1    8px               0.347892       0.380843
                          2       1    8py               0.347892       0.380843
                          2       1    8pz               0.347892       0.380843

                          3       1    2s                0.423897       0.374417

                          4       1    9px               0.493166       0.589089
                          4       1    9py               0.493166       0.589089
                          4       1    9pz               0.493166       0.589089

                          5       1   14dx2              0.625366       0.723843
                          5       1   14dxy              0.625366       1.253733
                          5       1   14dxz              0.625366       1.253733
                          5       1   14dy2              0.625366       0.723843
                          5       1   14dyz              0.625366       1.253733
                          5       1   14dz2              0.625366       0.723843

                          6       1   10px               0.699103       0.911206
                          6       1   10py               0.699103       0.911206
                          6       1   10pz               0.699103       0.911206

                          7       1    3s                0.758464       0.579244

                          8       1   15dx2              0.896802       1.360281
                          8       1   15dxy              0.896802       2.356075
                          8       1   15dxz              0.896802       2.356075
                          8       1   15dy2              0.896802       1.360281
                          8       1   15dyz              0.896802       2.356075
                          8       1   15dz2              0.896802       1.360281

                          9       1   11px               0.991036       1.409457
                          9       1   11py               0.991036       1.409457
                          9       1   11pz               0.991036       1.409457

                         10       1   17fx3              1.198110       2.210915
                         10       1   17fx2y             1.198110       4.943756
                         10       1   17fx2z             1.198110       4.943756
                         10       1   17fxy2             1.198110       4.943756
                         10       1   17fxyz             1.198110       8.562836
                         10       1   17fxz2             1.198110       4.943756
                         10       1   17fy3              1.198110       2.210915
                         10       1   17fy2z             1.198110       4.943756
                         10       1   17fyz2             1.198110       4.943756
                         10       1   17fz3              1.198110       2.210915

                         11       1   16dx2              1.286053       2.556305
                         11       1   16dxy              1.286053       4.427650
                         11       1   16dxz              1.286053       4.427650
                         11       1   16dy2              1.286053       2.556305
                         11       1   16dyz              1.286053       4.427650
                         11       1   16dz2              1.286053       2.556305

                         12       1    4s                1.357095       0.896123

                         13       1   12px               1.404875       2.180155
                         13       1   12py               1.404875       2.180155
                         13       1   12pz               1.404875       2.180155

                         14       1   13px               1.991527       3.372273
                         14       1   13py               1.991527       3.372273
                         14       1   13pz               1.991527       3.372273

                         15       1    5s                2.428204       1.386354

                         16       1    6s                4.344704       2.144768

                         17       1    7s                7.773833       3.318077

       Atomic covalent radius [Angstrom]:                                  0.320

       Atomic van der Waals radius [Angstrom]:                             1.090

     The atoms of this atomic kind are PAW atoms (GAPW):
       Hard Gaussian function radius:                                      1.200
       Rho0 radius:                                                        1.200
       Maximum GTO radius used for PAW projector construction:            24.566

     GAPW Soft Basis Set                                 aug-DZVP-MOLOPT-ae_soft

       Number of orbital shell sets:                                           1
       Number of orbital shells:                                               5
       Number of primitive Cartesian functions:                                4
       Number of Cartesian basis functions:                                    9
       Number of spherical basis functions:                                    9
       Norm type:                                                              2

       Normalised Cartesian orbitals:

                        Set   Shell   Orbital            Exponent    Coefficient

                          1       1    2s                0.035000       0.000000
                                                         0.111920       0.009149
                                                         0.374948       0.205449
                                                         1.446686       0.373852

                          1       2    3s                0.035000       0.000000
                                                         0.111920       0.143650
                                                         0.374948       0.007287
                                                         1.446686      -0.188851

                          1       3    4s                0.035000       0.090463
                                                         0.111920      -0.203934
                                                         0.374948      -0.000376
                                                         1.446686      -0.000051

                          1       4    3px               0.035000       0.000000
                                                         0.111920       0.007225
                                                         0.374948       0.280770
                                                         1.446686       0.896497
                          1       4    3py               0.035000       0.000000
                                                         0.111920       0.007225
                                                         0.374948       0.280770
                                                         1.446686       0.896497
                          1       4    3pz               0.035000       0.000000
                                                         0.111920       0.007225
                                                         0.374948       0.280770
                                                         1.446686       0.896497

                          1       5    4px               0.035000       0.011331
                                                         0.111920       0.048737
[...]
 https://doi.org/10.1002/wcms.1159

 U. Borstnik, J. VandeVondele, V. Weber, J. Hutter.
 Parallel Comput. 40, 47-58 (2014).
 Sparse matrix multiplication: The distributed block-compressed sparse row 
 library.
 https://doi.org/10.1016/j.parco.2014.03.012

 A. Marek, V. Blum, R. Johanni, V. Havu, B. Lang, T. Auckenthaler, A. Heinecke, 
 H. Bungartz, H. Lederer.
 J. Phys. Condens. Matter 26, 213201 (2014).
 The ELPA library: scalable parallel eigenvalue solutions for electronic 
 structure theory and computational science.
 https://doi.org/10.1088/0953-8984/26/21/213201

 M. Guidon, J. Hutter, J. VandeVondele.
 J. Chem. Theory Comput. 5, 3010-3021 (2009).
 Robust Periodic Hartree-Fock Exchange for Large-Scale Simulations Using 
 Gaussian Basis Sets.
 https://doi.org/10.1021/ct900494g

 M. Guidon, F. Schiffmann, J. Hutter, J. VandeVondele.
 J. Chem. Phys. 128, 214104 (2008).
 Ab initio molecular dynamics using hybrid density functionals.
 https://doi.org/10.1063/1.2931945

 L. Genovese, T. Deutsch, S. Goedecker.
 J. Chem. Phys. 127, 054704 (2007).
 Efficient and accurate three-dimensional Poisson solver for surface problems.
 https://doi.org/10.1063/1.2754685

 J. VandeVondele, J. Hutter.
 J. Chem. Phys. 127, 114105 (2007).
 Gaussian basis sets for accurate calculations on molecular systems in gas and 
 condensed phases.
 https://doi.org/10.1063/1.2770708

 L. Genovese, T. Deutsch, A. Neelov, S. Goedecker, G. Beylkin.
 J. Chem. Phys. 125, 074105 (2006).
 Efficient solution of Poisson's equation with free boundary conditions.
 https://doi.org/10.1063/1.2335442

 M. Iannuzzi, T. Chassaing, T. Wallman, J. Hutter.
 CHIMIA 59, 499-503 (2005).
 Ground and excited state density functional calculations with the Gaussian and 
 augmented-plane-wave method.
 https://doi.org/10.2533/000942905777676164

 M. Frigo, S. G. Johnson.
 Proc. IEEE 93, 216-231 (2005).
 The design and implementation of FFTW3.
 https://doi.org/10.1109/JPROC.2004.840301

 R. L. Martin.
 J. Chem. Phys. 118, 4775-4777 (2003).
 Natural transition orbitals.
 https://doi.org/10.1063/1.1558471

 M. Krack, M. Parrinello.
 Phys. Chem. Chem. Phys. 2, 2105-2112 (2000).
 All-electron ab-initio molecular dynamics.
 https://doi.org/10.1039/b001167n

 G. Lippert, J. Hutter, M. Parrinello.
 Theor. Chem. Acc. 103, 124-140 (1999).
 The Gaussian and augmented-plane-wave density functional method for ab initio 
 molecular dynamics simulations.
 https://doi.org/10.1007/s002140050523

 J. P. Perdew, K. Burke, M. Ernzerhof.
 Phys. Rev. Lett. 77, 3865-3868 (1996).
 Generalized gradient approximation made simple.
 https://doi.org/10.1103/PhysRevLett.77.3865


 -------------------------------------------------------------------------------
 -                                                                             -
 -                                T I M I N G                                  -
 -                                                                             -
 -------------------------------------------------------------------------------
 SUBROUTINE                       CALLS  ASD         SELF TIME        TOTAL TIME
                                MAXIMUM       AVERAGE  MAXIMUM  AVERAGE  MAXIMUM
 CP2K                                 1  1.0    0.024    0.046  350.208  350.212
 qs_energies                          1  2.0    0.000    0.000  349.782  349.786
 qs_energies_properties               1  3.0    0.000    0.000  234.778  234.781
 tddfpt                               1  4.0    0.000    0.000  234.778  234.781
 tddfpt_energies                      1  5.0    0.000    0.000  234.758  234.761
 tddfpt_davidson_solver               1  6.0    0.000    0.001  233.657  233.660
 tddfpt_compute_Aop_evects            6  7.0    0.000    0.000  233.072  233.074
 fhxc_kernel                          6  8.0    0.005    0.006  212.365  212.372
 fft_wrap_pw1pw2                   3359 11.1    0.073    0.093  110.834  115.585
 scf_env_do_scf                       1  3.0    0.000    0.000  114.409  114.416
 scf_env_do_scf_inner_loop           45  4.0    0.001    0.003  114.409  114.416
 fft_wrap_pw1pw2_250               2363 12.2    3.318    4.121  106.538  112.209
 fft3d_ps                          3359 13.1   22.529   27.559   97.114  103.277
 pw_poisson_solve                   165  9.5    0.985    1.313   95.866   97.732
 tddfpt_apply_coulomb               120  9.0    0.002    0.003   92.885   94.824
 qs_ks_update_qs_env                 45  5.0    0.000    0.000   92.071   92.079
 rebuild_ks_matrix                   45  6.0    0.000    0.000   92.067   92.075
 qs_ks_build_kohn_sham_matrix        45  7.0    0.007    0.007   92.067   92.075
 mp_alltoall_z22v                  3359 15.1   69.412   73.784   69.412   73.784
 ps_wavelet_solve                   165 10.5   14.368   17.959   68.245   69.242
 qs_rho_update_rho_low              167  7.9    0.002    0.002   55.871   55.874
 calculate_rho_elec                 167  8.9    0.326    0.412   55.267   55.269
 xc_pw_derive                       993 11.0    0.009    0.011   46.075   47.731
 integrate_four_center              285  9.8   11.497   22.705   45.769   45.845
 x_to_yz                           1534 13.8    2.472    3.863   38.688   45.086
 mp_sync                           1525 11.5   32.027   42.829   32.027   42.829
 tddfpt_apply_xc_analytic           120  9.0    0.265    0.336   41.996   42.673
 transfer_pw2rs                     826 10.9    0.016    0.023   40.498   41.148
 yz_to_x                           1493 14.4    2.237    2.571   35.405   37.452
 mp_alltoall_d54                    165 11.5   24.419   36.834   24.419   36.834
 mp_waitany                       38550 12.8   25.474   35.720   25.474   35.720
 density_rs2pw                      167  9.9    0.008    0.009   33.112   34.886
 integrate_v_rspace                 165  9.0    0.004    0.006   33.352   34.002
 potential_pw2rs                    165 10.0    0.025    0.028   33.287   33.574
 mp_alltoall_d45                    166 11.5   29.696   31.142   29.696   31.142
 xc_pw_divergence                   165 10.7    0.004    0.005   30.482   31.099
 transfer_pw2rs_250                 331 11.7    3.756    4.022   26.061   26.901
 hfx_ks_matrix                       45  8.0    0.001    0.001   26.046   26.067
 xc_calc_2nd_deriv_analytical       360 10.0    1.432    1.879   24.628   25.100
 mp_waitall_1                    236586 13.3    9.617   24.132    9.617   24.132
 integrate_four_center_main         285 10.8    0.174   17.603    0.222   21.929
 grid_collocate_task_list           167  9.9   20.559   21.860   20.559   21.860
 tddfpt_apply_hfx                     6  8.0    0.001    0.002   20.526   20.527
 integrate_vhg0_rspace              165  9.5    0.183    0.242   20.168   20.308
 prepare_gapw_den                   166  8.7    0.002    0.003   19.361   20.218
 tddft_hfx_matrix                   240  9.0    0.002    0.009   19.727   19.790
 transfer_rs2pw                     835 10.8    0.027    0.032   18.923   19.667
 mp_isend_dm3                      6646 12.8    7.514   16.534    7.514   16.534
 qs_vxc_create                       45  8.0    0.000    0.001   16.510   16.510
 xc_vxc_pw_create                    45  9.0    0.150    0.212   16.509   16.510
 put_rho0_on_grid                   166  9.7    0.333    0.425   14.647   15.505
 mp_sum_d                          2396  7.6    6.011   13.837    6.011   13.837
 transfer_rs2pw_250                 334 11.8    3.729    4.207   10.748   11.630
 transfer_pw2rs_90                  165 12.0    0.725    0.889    5.171   10.100
 transfer_pw2rs_30                  165 12.0    1.836    1.912    8.634   10.003
 sum_up_and_integrate                45  8.0    0.001    0.001    9.769    9.893
 mp_irecv_dm3                      6646 12.8    0.209    9.163    0.209    9.163
 xc_rho_set_and_dset_create          46 10.0    0.176    0.254    7.967    8.613
 fft_wrap_pw1pw2_90                 332 11.9    0.094    0.190    3.455    7.081
 mp_alltoall_d11v                 10760 11.6    5.123    6.801    5.123    6.801
 gspace_mixing                       44  5.0    0.086    0.109    5.764    5.765
 cp2k_distribution_to_z_slices      165 10.5    0.901    1.134    4.647    5.296
 pw_derive                         1488 11.8    4.418    4.871    4.418    4.871
 pw_gather_p                       1660 13.4    3.402    4.691    3.402    4.691
 transfer_rs2pw_90                  167 11.9    0.802    0.899    3.994    4.563
 calculate_rho_atom                 332  9.7    0.700    4.503    0.700    4.503
 gaVxcgb_GC                         165  9.7    0.037    4.461    0.037    4.461
 integrate_four_center_bin        23956 11.8    0.047    4.326    0.047    4.326
 Vh_1c_gg_integrals                 165  9.5    0.018    0.571    1.281    4.210
 pw_scatter_p                      1699 12.8    3.447    4.001    3.447    4.001
 mp_sum_dv                         9049  8.9    3.782    3.978    3.782    3.978
 transfer_rs2pw_30                  167 11.9    1.089    1.245    3.437    3.725
 calculate_xc_2nd_deriv_atom        120  9.0    0.029    0.348    0.079    3.709
 rs_grid_zero                       828 11.9    3.469    3.616    3.469    3.616
 pw_integral_ab_c1d_c1d_gs          165 10.5    0.627    0.725    1.467    3.595
 pw_copy                           2240 11.0    3.158    3.545    3.158    3.545
 broyden_mixing                      44  6.0    3.074    3.126    3.231    3.242
 mp_sendrecv_dv                   42418 12.9    2.800    3.091    2.800    3.091
 pw_poisson_set                     166 10.4    0.004    0.004    2.734    2.809
 mp_sum_dm                         1563 10.0    1.771    2.706    1.771    2.706
 pw_copy_to_array                  1660 13.4    1.995    2.664    1.995    2.664
 pw_axpy                           1778 10.8    1.527    1.844    1.527    1.844
 pw_copy_from_array                1699 12.8    1.377    1.691    1.377    1.691
 pw_zero                           1836 10.6    1.388    1.690    1.388    1.690
 mp_max_i                           634  4.2    0.703    1.546    0.703    1.546
 cp_dbcsr_sm_fm_multiply            766  8.5    0.009    0.010    1.370    1.455
 calculate_vxc_atom                  45  8.0    0.011    0.065    1.305    1.306
 xc_functional_eval                 376 10.9    0.001    0.002    0.845    1.260
 pbe_lda_eval                       376 11.9    0.844    1.259    0.844    1.259
 calc_screening_functions             1 10.0    1.036    1.057    1.169    1.195
 integrate_four_center_getP         285 10.8    0.030    0.035    0.736    1.033
 dbcsr_complete_redistribute       2532 10.4    0.047    0.076    0.797    1.027
 dbcsr_multiply_generic            1051 10.3    0.023    0.026    0.802    0.843
 fft_wrap_pw1pw2_30                 332 11.9    0.011    0.014    0.546    0.829
 transfer_rs2pw_10                  167 11.9    0.265    0.320    0.717    0.824
 mp_alltoall_i22                   3366 11.4    0.531    0.810    0.531    0.810
 copy_fm_to_dbcsr                  1697  9.5    0.004    0.005    0.545    0.796
 transfer_pw2rs_10                  165 12.0    0.159    0.181    0.617    0.751
 prepare_dr1dr                      360 11.0    0.558    0.698    0.558    0.698
 pw_poisson_rebuild                 165 10.5    0.000    0.000    0.658    0.685
 ps_wavelet_create                    1 10.0    0.000    0.000    0.658    0.685
 RS_z_slice_distribution              1 11.0    0.224    0.302    0.658    0.685
 tddfpt_construct_ground_state_       1  6.0    0.000    0.000    0.617    0.625
 cp_dbcsr_sm_fm_multiply_core       766  9.5    0.001    0.001    0.566    0.605
 calculate_rho_atom_coeff           167  8.9    0.027    0.062    0.602    0.604
 update_ks_atom                     165  8.7    0.016    0.050    0.462    0.567
 mp_bcast_dm                        990  9.7    0.446    0.551    0.446    0.551
 parallel_gemm_fm                  1116  8.2    0.001    0.001    0.358    0.489
 parallel_gemm_fm_cosma            1116  9.2    0.357    0.488    0.357    0.488
 copy_dbcsr_to_fm                   833  9.3    0.006    0.006    0.418    0.465
 init_scf_run                         1  3.0    0.000    0.000    0.445    0.445
 scf_env_initial_rho_setup            1  4.0    0.000    0.000    0.442    0.443
 calculate_rho0_atom                332  9.7    0.409    0.440    0.409    0.440
 grid_integrate_task_list           165 10.0    0.027    0.437    0.027    0.437
 offload_free_buffer                173 10.1    0.293    0.423    0.293    0.423
 multiply_cannon                   1051 11.3    0.063    0.070    0.347    0.383
 tddfpt_orthonormalize_psi1_psi       7  6.9    0.005    0.005    0.325    0.374
 rs_gather_matrices                 165 10.0    0.001    0.007    0.033    0.370
 integrate_four_center_dist_KS      285 10.8    0.029    0.036    0.342    0.345
 cp_dbcsr_plus_fm_fm_t              165  8.5    0.001    0.001    0.298    0.314
 fft_wrap_pw1pw2_10                 332 11.9    0.003    0.004    0.222    0.300
 mp_rank_compare                   3359 14.1    0.275    0.293    0.275    0.293
 multiply_cannon_loop              1051 12.3    0.045    0.046    0.220    0.271
 powell_optimize                 172743 11.0    0.253    0.266    0.253    0.266
 scale_and_distribute               330 11.5    0.195    0.262    0.195    0.262
 qs_scf_new_mos                      45  5.0    0.000    0.000    0.257    0.262
 make_m2s                          2102 11.3    0.014    0.016    0.241    0.259
 create_qs_kind_set                   1  2.0    0.000    0.000    0.232    0.232
 read_qs_kind                         2  3.0    0.039    0.055    0.232    0.232
 tddfpt_compute_residual_vects        5  7.0    0.000    0.000    0.223    0.225
 calc_pair_dist_radii                 1 10.0    0.103    0.104    0.222    0.225
 make_images                       2102 12.3    0.040    0.041    0.205    0.222
 create_kernel_env                    1  6.0    0.000    0.000    0.192    0.217
 xc_prep_2nd_deriv                    1  7.0    0.000    0.000    0.192    0.217
 tddfpt_print_nto_analysis            1  6.0    0.001    0.002    0.204    0.212
 mp_alltoall_z11v                   332 14.9    0.137    0.196    0.137    0.196
 mp_sum_l                          4155 10.3    0.171    0.195    0.171    0.195
 parser_read_line                 16272  4.0    0.003    0.003    0.193    0.193
 parser_read_line_low                22  5.0    0.003    0.141    0.190    0.191
 broadcast_input_information         22  6.0    0.007    0.007    0.188    0.189
 pw_scale                           420  9.5    0.125    0.186    0.125    0.186
 tddfpt_apply_energy_diff             6  8.0    0.000    0.000    0.180    0.180
 mp_bcast_i_src                      88  7.0    0.164    0.173    0.164    0.173
 cp_fm_trace_a1b1t1_aa             7470  8.0    0.013    0.014    0.143    0.165
 mp_isendrecv_dv                 114300 12.3    0.077    0.163    0.077    0.163
 cp_fm_diag_elpa                     73  7.3    0.000    0.000    0.143    0.160
 eigensolver_symm                    45  6.0    0.003    0.004    0.150    0.153
 rs_grid_create                     171 10.3    0.001    0.001    0.017    0.130
 dbcsr_desymmetrize_deep            834 10.3    0.008    0.009    0.110    0.129
 offload_create_buffer              173 11.3    0.016    0.129    0.016    0.129
 qs_init_subsys                       1  2.0    0.001    0.001    0.128    0.128
 qs_env_setup                         1  3.0    0.000    0.000    0.121    0.122
 qs_env_rebuild_pw_env                2  3.5    0.000    0.000    0.120    0.121
 pw_env_rebuild                       1  5.0    0.000    0.000    0.120    0.121
 multiply_cannon_metrocomm3       16816 13.3    0.023    0.024    0.057    0.114
 make_images_sizes                 2102 13.3    0.001    0.002    0.103    0.114
 mp_alltoall_i44                   2102 14.3    0.101    0.113    0.101    0.113
 pw_grid_setup                        4  6.0    0.000    0.000    0.111    0.112
 pw_grid_setup_internal               4  7.0    0.002    0.002    0.111    0.112
 mp_cart_sub                       1669 11.3    0.109    0.111    0.109    0.111
 xz_to_yz                           167 13.9    0.005    0.009    0.082    0.107
 yz_to_xz                           165 14.0    0.007    0.008    0.067    0.106
 xc_2nd_deriv_of_r                  240 10.0    0.000    0.017    0.002    0.105
 mp_cart_create                    1168 10.8    0.093    0.102    0.095    0.103
 cp_fm_redistribute_end              93  8.2    0.063    0.100    0.065    0.102
 cp_fm_diag_elpa_base                73  8.6    0.053    0.086    0.055    0.090
 dbcsr_finalize                    5495 11.4    0.012    0.016    0.073    0.086
 scf_post_calculation_gpw             1  3.0    0.000    0.000    0.086    0.086
 write_available_results              1  4.0    0.000    0.000    0.086    0.086
 write_mo_free_results                1  5.0    0.003    0.004    0.086    0.086
 tddfpt_orthogonalize_psi1_psi0       7  6.9    0.000    0.000    0.041    0.086
 pw_grid_sort                         4  8.0    0.055    0.056    0.076    0.078
 calculate_dm_sparse                 45  6.0    0.000    0.000    0.063    0.075
 mp_isend_dv                      64485 13.5    0.060    0.073    0.060    0.073
 cp_fm_redistribute_start            93  8.2    0.034    0.035    0.050    0.071
 qs_energies_init_hamiltonians        1  3.0    0.000    0.000    0.063    0.063
 cp_fm_geeig                         20  7.0    0.001    0.001    0.062    0.063
 mp_alltoall_i11v                  8430 11.4    0.022    0.062    0.022    0.062
 multiply_cannon_metrocomm1       16816 13.3    0.012    0.013    0.026    0.062
 write_mo_set_to_restart             45  5.0    0.001    0.060    0.039    0.061
 build_core_hamiltonian_matrix        1  4.0    0.000    0.000    0.060    0.060
 overlap_condnum                      1  5.0    0.000    0.000    0.059    0.060
 dbcsr_merge_all                   4346 12.4    0.032    0.046    0.047    0.060
 dbcsr_create_new                 18390 11.6    0.036    0.039    0.049    0.052
 cp_fm_write_unformatted             23  7.0    0.052    0.052    0.052    0.052
 multiply_cannon_metrocomm4       15765 13.3    0.024    0.026    0.041    0.048
 integrate_four_center_load         285 10.8    0.000    0.001    0.031    0.048
 hfx_load_balance                     1 11.0    0.000    0.000    0.031    0.048
 arnoldi_conjugate_gradient           5  6.0    0.001    0.002    0.048    0.048
 mp_irecv_dv                      63915 13.5    0.036    0.047    0.036    0.047
 multiply_cannon_metrocomm2       14714 13.3    0.023    0.025    0.039    0.044
 make_images_data                  2102 13.3    0.011    0.015    0.025    0.042
 hfx_load_balance_range               1 12.0    0.000    0.000    0.025    0.042
 mp_allgather_i34                  1051 12.3    0.035    0.041    0.035    0.041
 calculate_hirshfeld_normalizat       1  6.0    0.000    0.001    0.038    0.041
 cp_fm_syevd                         20  7.0    0.000    0.000    0.037    0.040
 write_mo_set_low                     3  6.0    0.000    0.000    0.038    0.038
 hirshfeld_integration                1  6.0    0.000    0.002    0.035    0.035
 -------------------------------------------------------------------------------

 The number of warnings for this run is : 1
 
 -------------------------------------------------------------------------------
  **** **** ******  **  PROGRAM ENDED AT                 2025-04-21 18:32:35.224
 ***** ** ***  *** **   PROGRAM RAN ON                                  n2cn0365
 **    ****   ******    PROGRAM RAN BY                                  metdyn02
 ***** **    ** ** **   PROGRAM PROCESS ID                               2679027
  **** **  *******  **  PROGRAM STOPPED IN /scratch/hpc-prf-metdyn/metdyn02_Remi
                                           /10_MOL/05_MOL/W4-11+ALK/h2s/DZVP/TDD
                                           FT/RILIM
