 DBCSR| CPU Multiplication driver                                           BLAS (U)
 DBCSR| Multrec recursion limit                                              512 (U)
 DBCSR| Multiplication stack size                                           1000 (D)
 DBCSR| Maximum elements for images                                    UNLIMITED (U)
 DBCSR| Multiplicative factor virtual images                                   1 (U)
 DBCSR| Use multiplication densification                                       T (D)
 DBCSR| Multiplication size stacks                                             3 (U)
 DBCSR| Use memory pool for CPU allocation                                     F (U)
 DBCSR| Number of 3D layers                                               SINGLE (U)
 DBCSR| Use MPI memory allocation                                              F (U)
 DBCSR| Use RMA algorithm                                                      F (U)
 DBCSR| Use Communication thread                                               T (U)
 DBCSR| Communication thread load                                             75 (D)
 DBCSR| MPI: My process id                                                     0
 DBCSR| MPI: Number of processes                                             216
 DBCSR| OMP: Current number of threads                                         4
 DBCSR| OMP: Max number of threads                                             4
 DBCSR| Split modifier for TAS multiplication algorithm                  1.0E+00 (U)


  **** **** ******  **  PROGRAM STARTED AT               2025-04-11 16:52:31.057
 ***** ** ***  *** **   PROGRAM STARTED ON                          i08r05c02s09
 **    ****   ******    PROGRAM STARTED BY                               di38fab
 ***** **    ** ** **   PROGRAM PROCESS ID                               1373935
  **** **  *******  **  PROGRAM STARTED IN /hppfs/scratch/04/di38fab/07_MOL_non_
                                           aug/05_MOL_non_aug/05_MOL/W4-11+ALK/c
                                           2h5f/TZVPP/GW+BSE

 CP2K| version string:                 CP2K version 2025.1 (Development Version)
 CP2K| source code revision number:                             unknown revision
 CP2K| cp2kflags: omp libint fftw3 libxc parallel scalapack max_contr=4         
 CP2K| is freely available from                            https://www.cp2k.org/
 CP2K| Program compiled at                         Thu Apr 10 16:20:23 CEST 2025
 CP2K| Program compiled on                                               login01
 CP2K| Program compiled for                                        Supermuc-foss
 CP2K| Data directory path                  /hppfs/work/pn36zo/di38fab/cp2k/data
 CP2K| Input file name                                                    GW.inp

 GLOBAL| Force Environment number                                              1
 GLOBAL| Basis set file name            /hppfs/scratch/04/di38fab/04_TMD/BASIS_A
 GLOBAL| Potential file name            /hppfs/work/pn36zo/di38fab/cp2k/data/ALL
 GLOBAL| MM Potential file name                                     MM_POTENTIAL
 GLOBAL| Coordinate file name                                      __STD_INPUT__
 GLOBAL| Method name                                                        CP2K
 GLOBAL| Project name                                                       MoS2
 GLOBAL| Run type                                                         ENERGY
 GLOBAL| FFT library                                                       FFTW3
 GLOBAL| Diagonalization library                                       ScaLAPACK
 GLOBAL| DGEMM library                                                      BLAS
 GLOBAL| Orthonormality check for eigenvectors                          DISABLED
 GLOBAL| Matrix multiplication library                                 ScaLAPACK
 GLOBAL| All-to-all communication in single precision                          F
 GLOBAL| FFTs using library dependent lengths                                  F
 GLOBAL| Grid backend                                                       AUTO
 GLOBAL| Global print level                                               MEDIUM
 GLOBAL| MPI I/O enabled                                                       T
 GLOBAL| Total number of message passing processes                           216
 GLOBAL| Number of threads for this process                                    4
 GLOBAL| This output is from process                                           0
 GLOBAL| OpenMP stack size per thread (OMP_STACKSIZE)                    default
 GLOBAL| CPU model name             Intel(R) Xeon(R) Platinum 8174 CPU @ 3.10GHz

 MEMORY| system memory details [Kb]
 MEMORY|                        rank 0           min           max       average
 MEMORY| MemTotal             98436664      98436648      98436664      98436661
 MEMORY| MemFree              84170180      83531760      84950744      84049644
 MEMORY| Buffers                     0             0             0             0
 MEMORY| Cached                2394932       2379380       2419624       2401454
 MEMORY| Slab                  1243068       1076460       1255512       1225253
 MEMORY| SReclaimable           272076        241396        284384        275364
 MEMORY| MemLikelyFree        86837188      86233172      87573972      86726463


 *** Fundamental physical constants (SI units) ***

 *** Literature: B. J. Mohr and B. N. Taylor,
 ***             CODATA recommended values of the fundamental physical
 ***             constants: 2006, Web Version 5.1
 ***             http://physics.nist.gov/constants

 Speed of light in vacuum [m/s]                             2.99792458000000E+08
 Magnetic constant or permeability of vacuum [N/A**2]       1.25663706143592E-06
 Electric constant or permittivity of vacuum [F/m]          8.85418781762039E-12
 Planck constant (h) [J*s]                                  6.62606896000000E-34
 Planck constant (h-bar) [J*s]                              1.05457162825177E-34
 Elementary charge [C]                                      1.60217648700000E-19
 Electron mass [kg]                                         9.10938215000000E-31
 Electron g factor [ ]                                     -2.00231930436220E+00
 Proton mass [kg]                                           1.67262163700000E-27
 Fine-structure constant                                    7.29735253760000E-03
 Rydberg constant [1/m]                                     1.09737315685270E+07
 Avogadro constant [1/mol]                                  6.02214179000000E+23
 Boltzmann constant [J/K]                                   1.38065040000000E-23
 Atomic mass unit [kg]                                      1.66053878200000E-27
 Bohr radius [m]                                            5.29177208590000E-11

 *** Conversion factors ***

 [u] -> [a.u.]                                              1.82288848426455E+03
 [Angstrom] -> [Bohr] = [a.u.]                              1.88972613288564E+00
 [a.u.] = [Bohr] -> [Angstrom]                              5.29177208590000E-01
 [a.u.] -> [s]                                              2.41888432650478E-17
 [a.u.] -> [fs]                                             2.41888432650478E-02
 [a.u.] -> [J]                                              4.35974393937059E-18
 [a.u.] -> [N]                                              8.23872205491840E-08
 [a.u.] -> [K]                                              3.15774647902944E+05
 [a.u.] -> [kJ/mol]                                         2.62549961709828E+03
 [a.u.] -> [kcal/mol]                                       6.27509468713739E+02
 [a.u.] -> [Pa]                                             2.94210107994716E+13
 [a.u.] -> [bar]                                            2.94210107994716E+08
 [a.u.] -> [atm]                                            2.90362800883016E+08
 [a.u.] -> [eV]                                             2.72113838565563E+01
 [a.u.] -> [Hz]                                             6.57968392072181E+15
 [a.u.] -> [1/cm] (wave numbers)                            2.19474631370540E+05
 [a.u./Bohr**2] -> [1/cm]                                   5.14048714338585E+03
 

 CELL_TOP| Volume [angstrom^3]:                                     27000.000000
 CELL_TOP| Vector a [angstrom    30.000     0.000     0.000   |a| =    30.000000
 CELL_TOP| Vector b [angstrom     0.000    30.000     0.000   |b| =    30.000000
 CELL_TOP| Vector c [angstrom     0.000     0.000    30.000   |c| =    30.000000
 CELL_TOP| Angle (b,c), alpha [degree]:                                90.000000
 CELL_TOP| Angle (a,c), beta  [degree]:                                90.000000
 CELL_TOP| Angle (a,b), gamma [degree]:                                90.000000
 CELL_TOP| Numerically orthorhombic:                                         YES
 CELL_TOP| Periodicity                                                      NONE

 GENERATE|  Preliminary Number of Bonds generated:                             0
 GENERATE|  Achieved consistency in connectivity generation.

 CELL| Volume [angstrom^3]:                                         27000.000000
 CELL| Vector a [angstrom]:      30.000     0.000     0.000   |a| =    30.000000
 CELL| Vector b [angstrom]:       0.000    30.000     0.000   |b| =    30.000000
 CELL| Vector c [angstrom]:       0.000     0.000    30.000   |c| =    30.000000
 CELL| Angle (b,c), alpha [degree]:                                    90.000000
 CELL| Angle (a,c), beta  [degree]:                                    90.000000
 CELL| Angle (a,b), gamma [degree]:                                    90.000000
 CELL| Numerically orthorhombic:                                             YES
 CELL| Periodicity                                                          NONE

 CELL_REF| Volume [angstrom^3]:                                     27000.000000
 CELL_REF| Vector a [angstrom    30.000     0.000     0.000   |a| =    30.000000
 CELL_REF| Vector b [angstrom     0.000    30.000     0.000   |b| =    30.000000
 CELL_REF| Vector c [angstrom     0.000     0.000    30.000   |c| =    30.000000
 CELL_REF| Angle (b,c), alpha [degree]:                                90.000000
 CELL_REF| Angle (a,c), beta  [degree]:                                90.000000
 CELL_REF| Angle (a,b), gamma [degree]:                                90.000000
 CELL_REF| Numerically orthorhombic:                                         YES
 CELL_REF| Periodicity                                                      NONE

 *******************************************************************************
 *******************************************************************************
 **                                                                           **
 **     #####                         ##              ##                      **
 **    ##   ##            ##          ##              ##                      **
 **   ##     ##                       ##            ######                    **
 **   ##     ##  ##   ##  ##   #####  ##  ##   ####   ##    #####    #####    **
 **   ##     ##  ##   ##  ##  ##      ## ##   ##      ##   ##   ##  ##   ##   **
 **   ##  ## ##  ##   ##  ##  ##      ####     ###    ##   ######   ######    **
 **    ##  ###   ##   ##  ##  ##      ## ##      ##   ##   ##       ##        **
 **     #######   #####   ##   #####  ##  ##  ####    ##    #####   ##        **
 **           ##                                                    ##        **
 **                                                                           **
 **                                                ... make the atoms dance   **
 **                                                                           **
 **            Copyright (C) by CP2K developers group (2000-2025)             **
 **                      J. Chem. Phys. 152, 194103 (2020)                    **
 **                                                                           **
 *******************************************************************************

 DFT| Spin restricted Kohn-Sham (RKS) calculation                            RKS
 DFT| Multiplicity                                                             1
 DFT| Number of spin states                                                    1
 DFT| Charge                                                                   0
 DFT| Self-interaction correction (SIC)                                       NO
 DFT| Cutoffs: density                                              1.000000E-10
 DFT|          gradient                                             1.000000E-10
 DFT|          tau                                                  1.000000E-10
 DFT|          cutoff_smoothing_range                               0.000000E+00
 DFT| XC density smoothing                                                  NONE
 DFT| XC derivatives                                                          PW

 FUNCTIONAL| PBE:
 FUNCTIONAL| J.P.Perdew, K.Burke, M.Ernzerhof, Phys. Rev. Letter, vol. 77, n 18,
 FUNCTIONAL|  pp. 3865-3868, (1996)sx=0.750sc=1.000{spin unpolarized}           


 QS| Method:                                                                GAPW
 QS| Density plane wave grid type                        NON-SPHERICAL FULLSPACE
 QS| Number of grid levels:                                                    4
 QS| Density cutoff [a.u.]:                                                250.0
 QS| Multi grid cutoff [a.u.]: 1) grid level                               250.0
 QS|                           2) grid level                                83.3
 QS|                           3) grid level                                27.8
 QS|                           4) grid level                                 9.3
 QS| Grid level progression factor:                                          3.0
 QS| Relative density cutoff [a.u.]:                                        50.0
 QS| Interaction thresholds: eps_pgf_orb:                                1.0E-12
 QS|                         eps_filter_matrix:                          0.0E+00
 QS|                         eps_core_charge:                            1.0E-14
 QS|                         eps_rho_gspace:                             1.0E-12
 QS|                         eps_rho_rspace:                             1.0E-12
 QS|                         eps_gvg_rspace:                             1.0E-06
 QS|                         eps_ppl:                                    1.0E-02
 QS|                         eps_ppnl:                                   1.0E-08
 QS| GAPW|      One center basis from orbital basis primitives
 QS| GAPW|                   eps_fit:                                    1.0E-04
 QS| GAPW|                   eps_iso:                                    1.0E-12
 QS| GAPW|                   eps_svd:                                    1.0E-08
 QS| GAPW|                   eps_cpc:                                    1.0E-12
 QS| GAPW|   atom-r-grid: quadrature:                                     GC_LOG
 QS| GAPW|      atom-s-grid:  max l :                                          6
 QS| GAPW|      max_l_rho0 :                                                   2


 ATOMIC KIND INFORMATION

  1. Atomic kind: F                                     Number of atoms:       1

     Orbital Basis Set                                       TZVPP-MOLOPT-GGA-ae

       Number of orbital shell sets:                                           2
       Number of orbital shells:                                              11
       Number of primitive Cartesian functions:                               12
       Number of Cartesian basis functions:                                   36
       Number of spherical basis functions:                                   31
       Norm type:                                                              2

       Normalised Cartesian orbitals:

                        Set   Shell   Orbital            Exponent    Coefficient

                          1       1    1s               79.879018       1.708555
                                                        16.196356       3.767666
                                                         5.778011       0.969853
                                                         1.800486       0.004609
                                                         0.613429      -0.067525
                                                         0.194582       0.001505

                          1       2    2s               79.879018      -0.276035
                                                        16.196356       0.068705
                                                         5.778011       0.020765
                                                         1.800486       0.940599
                                                         0.613429       0.049466
                                                         0.194582       0.022642

                          1       3    3s               79.879018      -0.336892
                                                        16.196356       0.704585
                                                         5.778011       0.100745
                                                         1.800486      -0.152255
                                                         0.613429       0.342883
                                                         0.194582       0.087007

                          1       4    4s               79.879018      -0.236970
                                                        16.196356      -0.931351
                                                         5.778011      -0.155756
                                                         1.800486      -0.091539
                                                         0.613429      -0.427486
                                                         0.194582       0.306214

                          1       5    2px              79.879018     -73.460224
                                                        16.196356      -4.237418
                                                         5.778011       4.328213
                                                         1.800486       2.305775
                                                         0.613429       0.001604
                                                         0.194582      -0.007867
                          1       5    2py              79.879018     -73.460224
                                                        16.196356      -4.237418
                                                         5.778011       4.328213
                                                         1.800486       2.305775
                                                         0.613429       0.001604
                                                         0.194582      -0.007867
                          1       5    2pz              79.879018     -73.460224
                                                        16.196356      -4.237418
                                                         5.778011       4.328213
                                                         1.800486       2.305775
                                                         0.613429       0.001604
                                                         0.194582      -0.007867

                          1       6    3px              79.879018      70.930414
                                                        16.196356       7.086453
                                                         5.778011       1.346635
                                                         1.800486       0.066297
                                                         0.613429       0.715705
                                                         0.194582      -0.017292
                          1       6    3py              79.879018      70.930414
                                                        16.196356       7.086453
                                                         5.778011       1.346635
                                                         1.800486       0.066297
                                                         0.613429       0.715705
                                                         0.194582      -0.017292
                          1       6    3pz              79.879018      70.930414
                                                        16.196356       7.086453
                                                         5.778011       1.346635
                                                         1.800486       0.066297
                                                         0.613429       0.715705
                                                         0.194582      -0.017292

                          1       7    4px              79.879018      20.085768
                                                        16.196356       2.450396
                                                         5.778011      -0.458038
                                                         1.800486       0.263451
                                                         0.613429       0.056449
                                                         0.194582       0.168868
                          1       7    4py              79.879018      20.085768
                                                        16.196356       2.450396
                                                         5.778011      -0.458038
                                                         1.800486       0.263451
                                                         0.613429       0.056449
                                                         0.194582       0.168868
                          1       7    4pz              79.879018      20.085768
                                                        16.196356       2.450396
                                                         5.778011      -0.458038
                                                         1.800486       0.263451
                                                         0.613429       0.056449
                                                         0.194582       0.168868

                          1       8    3dx2             79.879018     275.158203
                                                        16.196356       9.390358
                                                         5.778011      21.295254
                                                         1.800486       2.122427
                                                         0.613429       0.011610
                                                         0.194582       0.011281
                          1       8    3dxy             79.879018     476.587987
                                                        16.196356      16.264577
                                                         5.778011      36.884463
                                                         1.800486       3.676152
                                                         0.613429       0.020109
                                                         0.194582       0.019539
                          1       8    3dxz             79.879018     476.587987
                                                        16.196356      16.264577
                                                         5.778011      36.884463
                                                         1.800486       3.676152
                                                         0.613429       0.020109
                                                         0.194582       0.019539
                          1       8    3dy2             79.879018     275.158203
                                                        16.196356       9.390358
                                                         5.778011      21.295254
                                                         1.800486       2.122427
                                                         0.613429       0.011610
                                                         0.194582       0.011281
                          1       8    3dyz             79.879018     476.587987
                                                        16.196356      16.264577
                                                         5.778011      36.884463
                                                         1.800486       3.676152
                                                         0.613429       0.020109
                                                         0.194582       0.019539
                          1       8    3dz2             79.879018     275.158203
                                                        16.196356       9.390358
                                                         5.778011      21.295254
                                                         1.800486       2.122427
                                                         0.613429       0.011610
                                                         0.194582       0.011281

                          1       9    4dx2             79.879018    -118.871689
                                                        16.196356       0.945115
                                                         5.778011      -5.548204
                                                         1.800486       0.938577
                                                         0.613429       0.660644
                                                         0.194582      -0.010172
                          1       9    4dxy             79.879018    -205.891805
                                                        16.196356       1.636987
                                                         5.778011      -9.609772
                                                         1.800486       1.625663
                                                         0.613429       1.144268
                                                         0.194582      -0.017619
                          1       9    4dxz             79.879018    -205.891805
                                                        16.196356       1.636987
                                                         5.778011      -9.609772
                                                         1.800486       1.625663
                                                         0.613429       1.144268
                                                         0.194582      -0.017619
                          1       9    4dy2             79.879018    -118.871689
                                                        16.196356       0.945115
                                                         5.778011      -5.548204
                                                         1.800486       0.938577
                                                         0.613429       0.660644
                                                         0.194582      -0.010172
                          1       9    4dyz             79.879018    -205.891805
                                                        16.196356       1.636987
                                                         5.778011      -9.609772
                                                         1.800486       1.625663
                                                         0.613429       1.144268
                                                         0.194582      -0.017619
                          1       9    4dz2             79.879018    -118.871689
                                                        16.196356       0.945115
                                                         5.778011      -5.548204
                                                         1.800486       0.938577
                                                         0.613429       0.660644
                                                         0.194582      -0.010172

                          1      10    4fx3             79.879018    -329.447232
                                                        16.196356      72.836382
                                                         5.778011     -12.930167
                                                         1.800486       3.891850
                                                         0.613429       0.247380
                                                         0.194582      -0.002169
                          1      10    4fx2y            79.879018    -736.666407
                                                        16.196356     162.867101
                                                         5.778011     -28.912732
                                                         1.800486       8.702441
                                                         0.613429       0.553159
                                                         0.194582      -0.004851
                          1      10    4fx2z            79.879018    -736.666407
                                                        16.196356     162.867101
                                                         5.778011     -28.912732
                                                         1.800486       8.702441
                                                         0.613429       0.553159
                                                         0.194582      -0.004851
                          1      10    4fxy2            79.879018    -736.666407
                                                        16.196356     162.867101
                                                         5.778011     -28.912732
                                                         1.800486       8.702441
                                                         0.613429       0.553159
                                                         0.194582      -0.004851
                          1      10    4fxyz            79.879018   -1275.943645
                                                        16.196356     282.094094
                                                         5.778011     -50.078321
                                                         1.800486      15.073071
                                                         0.613429       0.958099
                                                         0.194582      -0.008402
                          1      10    4fxz2            79.879018    -736.666407
                                                        16.196356     162.867101
                                                         5.778011     -28.912732
                                                         1.800486       8.702441
                                                         0.613429       0.553159
                                                         0.194582      -0.004851
                          1      10    4fy3             79.879018    -329.447232
                                                        16.196356      72.836382
                                                         5.778011     -12.930167
                                                         1.800486       3.891850
                                                         0.613429       0.247380
                                                         0.194582      -0.002169
                          1      10    4fy2z            79.879018    -736.666407
                                                        16.196356     162.867101
                                                         5.778011     -28.912732
                                                         1.800486       8.702441
                                                         0.613429       0.553159
                                                         0.194582      -0.004851
                          1      10    4fyz2            79.879018    -736.666407
                                                        16.196356     162.867101
                                                         5.778011     -28.912732
                                                         1.800486       8.702441
                                                         0.613429       0.553159
                                                         0.194582      -0.004851
                          1      10    4fz3             79.879018    -329.447232
                                                        16.196356      72.836382
                                                         5.778011     -12.930167
                                                         1.800486       3.891850
                                                         0.613429       0.247380
                                                         0.194582      -0.002169

                          2       1    1s            35479.028788       0.923591
                                                      5318.563130       2.713095
                                                      1210.532078       3.723749
                                                       342.851437       7.109574
                                                       112.046988       6.223180
                                                        40.784918       7.926235

     RI Auxiliary Basis Set                                    aug-cc-pV5Z-RIFIT

       Number of orbital shell sets:                                          46
       Number of orbital shells:                                              46
       Number of primitive Cartesian functions:                               46
       Number of Cartesian basis functions:                                  371
       Number of spherical basis functions:                                  242
       Norm type:                                                              2

       Normalised Cartesian orbitals:

                        Set   Shell   Orbital            Exponent    Coefficient

                          1       1    1s                0.123244       0.148246

                          2       1    1dx2              0.180000       0.081872
                          2       1    1dxy              0.180000       0.141807
                          2       1    1dxz              0.180000       0.141807
                          2       1    1dy2              0.180000       0.081872
                          2       1    1dyz              0.180000       0.141807
                          2       1    1dz2              0.180000       0.081872

                          3       1    1px               0.230106       0.227169
                          3       1    1py               0.230106       0.227169
                          3       1    1pz               0.230106       0.227169

                          4       1    1s                0.299915       0.288841

                          5       1    1fx3              0.329422       0.121031
                          5       1    1fx2y             0.329422       0.270634
                          5       1    1fx2z             0.329422       0.270634
                          5       1    1fxy2             0.329422       0.270634
                          5       1    1fxyz             0.329422       0.468752
                          5       1    1fxz2             0.329422       0.270634
                          5       1    1fy3              0.329422       0.121031
                          5       1    1fy2z             0.329422       0.270634
                          5       1    1fyz2             0.329422       0.270634
                          5       1    1fz3              0.329422       0.121031

                          6       1    1dx2              0.367580       0.285611
                          6       1    1dxy              0.367580       0.494693
                          6       1    1dxz              0.367580       0.494693
                          6       1    1dy2              0.367580       0.285611
                          6       1    1dyz              0.367580       0.494693
                          6       1    1dz2              0.367580       0.285611

                          7       1    1px               0.533003       0.649161
                          7       1    1py               0.533003       0.649161
                          7       1    1pz               0.533003       0.649161

                          8       1    1gx4              0.569767       0.236921
                          8       1    1gx3y             0.569767       0.626833
                          8       1    1gx3z             0.569767       0.626833
                          8       1    1gx2y2            0.569767       0.809238
                          8       1    1gx2yz            0.569767       1.401642
                          8       1    1gx2z2            0.569767       0.809238
                          8       1    1gxy3             0.569767       0.626833
                          8       1    1gxy2z            0.569767       1.401642
                          8       1    1gxyz2            0.569767       1.401642
                          8       1    1gxz3             0.569767       0.626833
                          8       1    1gy4              0.569767       0.236921
                          8       1    1gy3z             0.569767       0.626833
                          8       1    1gy2z2            0.569767       0.809238
                          8       1    1gyz3             0.569767       0.626833
                          8       1    1gz4              0.569767       0.236921

                          9       1    1s                0.603875       0.488225

                         10       1    1fx3              0.809465       0.914956
                         10       1    1fx2y             0.809465       2.045903
                         10       1    1fx2z             0.809465       2.045903
                         10       1    1fxy2             0.809465       2.045903
                         10       1    1fxyz             0.809465       3.543609
                         10       1    1fxz2             0.809465       2.045903
                         10       1    1fy3              0.809465       0.914956
                         10       1    1fy2z             0.809465       2.045903
                         10       1    1fyz2             0.809465       2.045903
                         10       1    1fz3              0.809465       0.914956

                         11       1    1px               0.880017       1.214937
                         11       1    1py               0.880017       1.214937
                         11       1    1pz               0.880017       1.214937

                         12       1    1dx2              0.890528       1.343670
                         12       1    1dxy              0.890528       2.327305
                         12       1    1dxz              0.890528       2.327305
                         12       1    1dy2              0.890528       1.343670
                         12       1    1dyz              0.890528       2.327305
                         12       1    1dz2              0.890528       1.343670

                         13       1    1hx5              1.018550       0.787566
                         13       1    1hx4y             1.018550       2.362697
                         13       1    1hx4z             1.018550       2.362697
                         13       1    1hx3y2            1.018550       3.609080
                         13       1    1hx3yz            1.018550       6.251109
                         13       1    1hx3z2            1.018550       3.609080
                         13       1    1hx2y3            1.018550       3.609080
                         13       1    1hx2y2z           1.018550       8.070147
                         13       1    1hx2yz2           1.018550       8.070147
                         13       1    1hx2z3            1.018550       3.609080
                         13       1    1hxy4             1.018550       2.362697
                         13       1    1hxy3z            1.018550       6.251109
                         13       1    1hxy2z2           1.018550       8.070147
                         13       1    1hxyz3            1.018550       6.251109
                         13       1    1hxz4             1.018550       2.362697
                         13       1    1hy5              1.018550       0.787566
                         13       1    1hy4z             1.018550       2.362697
                         13       1    1hy3z2            1.018550       3.609080
                         13       1    1hy2z3            1.018550       3.609080
                         13       1    1hyz4             1.018550       2.362697
                         13       1    1hz5              1.018550       0.787566

                         14       1    1gx4              1.319190       2.383859
                         14       1    1gx3y             1.319190       6.307099
                         14       1    1gx3z             1.319190       6.307099
                         14       1    1gx2y2            1.319190       8.142430
                         14       1    1gx2yz            1.319190      14.103102
                         14       1    1gx2z2            1.319190       8.142430
                         14       1    1gxy3             1.319190       6.307099
                         14       1    1gxy2z            1.319190      14.103102
                         14       1    1gxyz2            1.319190      14.103102
                         14       1    1gxz3             1.319190       6.307099
                         14       1    1gy4              1.319190       2.383859
                         14       1    1gy3z             1.319190       6.307099
                         14       1    1gy2z2            1.319190       8.142430
                         14       1    1gyz3             1.319190       6.307099
                         14       1    1gz4              1.319190       2.383859

                         15       1    1s                1.340780       0.888031

                         16       1    1fx3              1.581520       4.129263
                         16       1    1fx2y             1.581520       9.233312
                         16       1    1fx2z             1.581520       9.233312
                         16       1    1fxy2             1.581520       9.233312
                         16       1    1fxyz             1.581520      15.992565
                         16       1    1fxz2             1.581520       9.233312
                         16       1    1fy3              1.581520       4.129263
                         16       1    1fy2z             1.581520       9.233312
                         16       1    1fyz2             1.581520       9.233312
                         16       1    1fz3              1.581520       4.129263

                         17       1    1px               1.639320       2.644051
                         17       1    1py               1.639320       2.644051
                         17       1    1pz               1.639320       2.644051

                         18       1    1dx2              1.819720       4.692642
                         18       1    1dxy              1.819720       8.127895
                         18       1    1dxz              1.819720       8.127895
                         18       1    1dy2              1.819720       4.692642
                         18       1    1dyz              1.819720       8.127895
                         18       1    1dz2              1.819720       4.692642

                         19       1    1ix6              1.827700       4.293597
                         19       1    1ix5y             1.827700      14.240249
                         19       1    1ix5z             1.827700      14.240249
                         19       1    1ix4y2            1.827700      24.664835
                         19       1    1ix4yz            1.827700      42.720747
                         19       1    1ix4z2            1.827700      24.664835
                         19       1    1ix3y3            1.827700      29.183826
                         19       1    1ix3y2z           1.827700      65.257019
                         19       1    1ix3yz2           1.827700      65.257019
                         19       1    1ix3z3            1.827700      29.183826
                         19       1    1ix2y4            1.827700      24.664835
                         19       1    1ix2y3z           1.827700      65.257019
                         19       1    1ix2y2z2          1.827700      84.246449
                         19       1    1ix2yz3           1.827700      65.257019
                         19       1    1ix2z4            1.827700      24.664835
                         19       1    1ixy5             1.827700      14.240249
                         19       1    1ixy4z            1.827700      42.720747
                         19       1    1ixy3z2           1.827700      65.257019
                         19       1    1ixy2z3           1.827700      65.257019
                         19       1    1ixyz4            1.827700      42.720747
                         19       1    1ixz5             1.827700      14.240249
                         19       1    1iy6              1.827700       4.293597
                         19       1    1iy5z             1.827700      14.240249
                         19       1    1iy4z2            1.827700      24.664835
                         19       1    1iy3z3            1.827700      29.183826
                         19       1    1iy2z4            1.827700      24.664835
                         19       1    1iyz5             1.827700      14.240249
                         19       1    1iz6              1.827700       4.293597

                         20       1    1hx5              2.200100       9.622370
                         20       1    1hx4y             2.200100      28.867109
                         20       1    1hx4z             2.200100      28.867109
                         20       1    1hx3y2            2.200100      44.095237
                         20       1    1hx3yz            2.200100      76.375191
                         20       1    1hx3z2            2.200100      44.095237
                         20       1    1hx2y3            2.200100      44.095237
                         20       1    1hx2y2z           2.200100      98.599948
                         20       1    1hx2yz2           2.200100      98.599948
                         20       1    1hx2z3            2.200100      44.095237
                         20       1    1hxy4             2.200100      28.867109
                         20       1    1hxy3z            2.200100      76.375191
                         20       1    1hxy2z2           2.200100      98.599948
                         20       1    1hxyz3            2.200100      76.375191
                         20       1    1hxz4             2.200100      28.867109
                         20       1    1hy5              2.200100       9.622370
                         20       1    1hy4z             2.200100      28.867109
                         20       1    1hy3z2            2.200100      44.095237
                         20       1    1hy2z3            2.200100      44.095237
                         20       1    1hyz4             2.200100      28.867109
                         20       1    1hz5              2.200100       9.622370

                         21       1    1s                2.601990       1.460123

                         22       1    1gx4              2.714870      17.347835
                         22       1    1gx3y             2.714870      45.898057
                         22       1    1gx3z             2.714870      45.898057
                         22       1    1gx2y2            2.714870      59.254137
                         22       1    1gx2yz            2.714870     102.631176
                         22       1    1gx2z2            2.714870      59.254137
                         22       1    1gxy3             2.714870      45.898057
                         22       1    1gxy2z            2.714870     102.631176
                         22       1    1gxyz2            2.714870     102.631176
                         22       1    1gxz3             2.714870      45.898057
                         22       1    1gy4              2.714870      17.347835
                         22       1    1gy3z             2.714870      45.898057
                         22       1    1gy2z2            2.714870      59.254137
                         22       1    1gyz3             2.714870      45.898057
                         22       1    1gz4              2.714870      17.347835

                         23       1    1fx3              2.814490      15.104411
                         23       1    1fx2y             2.814490      33.774490
                         23       1    1fx2z             2.814490      33.774490
                         23       1    1fxy2             2.814490      33.774490
                         23       1    1fxyz             2.814490      58.499133
                         23       1    1fxz2             2.814490      33.774490
                         23       1    1fy3              2.814490      15.104411
                         23       1    1fy2z             2.814490      33.774490
                         23       1    1fyz2             2.814490      33.774490
                         23       1    1fz3              2.814490      15.104411

                         24       1    1dx2              2.971120      11.066742
                         24       1    1dxy              2.971120      19.168160
                         24       1    1dxz              2.971120      19.168160
                         24       1    1dy2              2.971120      11.066742
                         24       1    1dyz              2.971120      19.168160
                         24       1    1dz2              2.971120      11.066742

                         25       1    1px               3.490790       6.801344
                         25       1    1py               3.490790       6.801344
                         25       1    1pz               3.490790       6.801344

                         26       1    1hx5              4.172870      77.047304
                         26       1    1hx4y             4.172870     231.141911
                         26       1    1hx4z             4.172870     231.141911
                         26       1    1hx3y2            4.172870     353.075102
                         26       1    1hx3yz            4.172870     611.544015
                         26       1    1hx3z2            4.172870     353.075102
                         26       1    1hx2y3            4.172870     353.075102
                         26       1    1hx2y2z           4.172870     789.499928
                         26       1    1hx2yz2           4.172870     789.499928
                         26       1    1hx2z3            4.172870     353.075102
                         26       1    1hxy4             4.172870     231.141911
                         26       1    1hxy3z            4.172870     611.544015
                         26       1    1hxy2z2           4.172870     789.499928
                         26       1    1hxyz3            4.172870     611.544015
                         26       1    1hxz4             4.172870     231.141911
                         26       1    1hy5              4.172870      77.047304
                         26       1    1hy4z             4.172870     231.141911
                         26       1    1hy3z2            4.172870     353.075102
                         26       1    1hy2z3            4.172870     353.075102
                         26       1    1hyz4             4.172870     231.141911
                         26       1    1hz5              4.172870      77.047304

                         27       1    1ix6              4.223720      99.319499
                         27       1    1ix5y             4.223720     329.405512
                         27       1    1ix5z             4.223720     329.405512
                         27       1    1ix4y2            4.223720     570.547084
                         27       1    1ix4yz            4.223720     988.216537
                         27       1    1ix4z2            4.223720     570.547084
                         27       1    1ix3y3            4.223720     675.080413
                         27       1    1ix3y2z           4.223720    1509.525694
                         27       1    1ix3yz2           4.223720    1509.525694
                         27       1    1ix3z3            4.223720     675.080413
                         27       1    1ix2y4            4.223720     570.547084
                         27       1    1ix2y3z           4.223720    1509.525694
                         27       1    1ix2y2z2          4.223720    1948.789292
                         27       1    1ix2yz3           4.223720    1509.525694
                         27       1    1ix2z4            4.223720     570.547084
                         27       1    1ixy5             4.223720     329.405512
                         27       1    1ixy4z            4.223720     988.216537
                         27       1    1ixy3z2           4.223720    1509.525694
                         27       1    1ixy2z3           4.223720    1509.525694
                         27       1    1ixyz4            4.223720     988.216537
                         27       1    1ixz5             4.223720     329.405512
                         27       1    1iy6              4.223720      99.319499
                         27       1    1iy5z             4.223720     329.405512
                         27       1    1iy4z2            4.223720     570.547084
                         27       1    1iy3z3            4.223720     675.080413
                         27       1    1iy2z4            4.223720     570.547084
                         27       1    1iyz5             4.223720     329.405512
                         27       1    1iz6              4.223720      99.319499

                         28       1    1s                4.284400       2.122402

                         29       1    1gx4              4.936690      89.822271
                         29       1    1gx3y             4.936690     237.647391
                         29       1    1gx3z             4.936690     237.647391
                         29       1    1gx2y2            4.936690     306.801463
                         29       1    1gx2yz            4.936690     531.395721
                         29       1    1gx2z2            4.936690     306.801463
                         29       1    1gxy3             4.936690     237.647391
                         29       1    1gxy2z            4.936690     531.395721
                         29       1    1gxyz2            4.936690     531.395721
                         29       1    1gxz3             4.936690     237.647391
                         29       1    1gy4              4.936690      89.822271
                         29       1    1gy3z             4.936690     237.647391
                         29       1    1gy2z2            4.936690     306.801463
                         29       1    1gyz3             4.936690     237.647391
                         29       1    1gz4              4.936690      89.822271

                         30       1    1fx3              4.943880      53.654638
                         30       1    1fx2y             4.943880     119.975419
                         30       1    1fx2z             4.943880     119.975419
                         30       1    1fxy2             4.943880     119.975419
                         30       1    1fxyz             4.943880     207.803521
                         30       1    1fxz2             4.943880     119.975419
                         30       1    1fy3              4.943880      53.654638
                         30       1    1fy2z             4.943880     119.975419
                         30       1    1fyz2             4.943880     119.975419
                         30       1    1fz3              4.943880      53.654638

                         31       1    1dx2              5.495020      32.460536
                         31       1    1dxy              5.495020      56.223298
                         31       1    1dxz              5.495020      56.223298
                         31       1    1dy2              5.495020      32.460536
                         31       1    1dyz              5.495020      56.223298
                         31       1    1dz2              5.495020      32.460536

                         32       1    1px               6.289910      14.198603
                         32       1    1py               6.289910      14.198603
                         32       1    1pz               6.289910      14.198603

                         33       1    1hx5              7.104650     434.368079
                         33       1    1hx4y             7.104650    1303.104237
                         33       1    1hx4z             7.104650    1303.104237
                         33       1    1hx3y2            7.104650    1990.524601
                         33       1    1hx3yz            7.104650    3447.689742
                         33       1    1hx3z2            7.104650    1990.524601
                         33       1    1hx2y3            7.104650    1990.524601
                         33       1    1hx2y2z           7.104650    4450.948318
                         33       1    1hx2yz2           7.104650    4450.948318
                         33       1    1hx2z3            7.104650    1990.524601
                         33       1    1hxy4             7.104650    1303.104237
                         33       1    1hxy3z            7.104650    3447.689742
                         33       1    1hxy2z2           7.104650    4450.948318
                         33       1    1hxyz3            7.104650    3447.689742
                         33       1    1hxz4             7.104650    1303.104237
                         33       1    1hy5              7.104650     434.368079
                         33       1    1hy4z             7.104650    1303.104237
                         33       1    1hy3z2            7.104650    1990.524601
                         33       1    1hy2z3            7.104650    1990.524601
                         33       1    1hyz4             7.104650    1303.104237
                         33       1    1hz5              7.104650     434.368079

                         34       1    1s                7.480350       3.223677

                         35       1    1fx3              8.608610     186.876105
                         35       1    1fx2y             8.608610     417.867675
                         35       1    1fx2z             8.608610     417.867675
                         35       1    1fxy2             8.608610     417.867675
                         35       1    1fxyz             8.608610     723.768044
                         35       1    1fxz2             8.608610     417.867675
                         35       1    1fy3              8.608610     186.876105
                         35       1    1fy2z             8.608610     417.867675
                         35       1    1fyz2             8.608610     417.867675
                         35       1    1fz3              8.608610     186.876105

                         36       1    1dx2              8.880760      75.196424
                         36       1    1dxy              8.880760     130.244027
                         36       1    1dxz              8.880760     130.244027
                         36       1    1dy2              8.880760      75.196424
                         36       1    1dyz              8.880760     130.244027
                         36       1    1dz2              8.880760      75.196424

                         37       1    1gx4              9.163700     492.187181
                         37       1    1gx3y             9.163700    1302.204879
                         37       1    1gx3z             9.163700    1302.204879
                         37       1    1gx2y2            9.163700    1681.139270
                         37       1    1gx2yz            9.163700    2911.818631
                         37       1    1gx2z2            9.163700    1681.139270
                         37       1    1gxy3             9.163700    1302.204879
                         37       1    1gxy2z            9.163700    2911.818631
                         37       1    1gxyz2            9.163700    2911.818631
                         37       1    1gxz3             9.163700    1302.204879
                         37       1    1gy4              9.163700     492.187181
                         37       1    1gy3z             9.163700    1302.204879
                         37       1    1gy2z2            9.163700    1681.139270
                         37       1    1gyz3             9.163700    1302.204879
                         37       1    1gz4              9.163700     492.187181

                         38       1    1px              13.592500      37.201827
                         38       1    1py              13.592500      37.201827
                         38       1    1pz              13.592500      37.201827

                         39       1    1fx3             18.500300    1044.976886
                         39       1    1fx2y            18.500300    2336.639352
                         39       1    1fx2z            18.500300    2336.639352
                         39       1    1fxy2            18.500300    2336.639352
                         39       1    1fxyz            18.500300    4047.178077
                         39       1    1fxz2            18.500300    2336.639352
                         39       1    1fy3             18.500300    1044.976886
                         39       1    1fy2z            18.500300    2336.639352
                         39       1    1fyz2            18.500300    2336.639352
                         39       1    1fz3             18.500300    1044.976886

                         40       1    1s               21.723600       7.171482

                         41       1    1dx2             27.767600     552.842674
                         41       1    1dxy             27.767600     957.551601
                         41       1    1dxz             27.767600     957.551601
                         41       1    1dy2             27.767600     552.842674
                         41       1    1dyz             27.767600     957.551601
                         41       1    1dz2             27.767600     552.842674

                         42       1    1px              32.033700     108.629797
                         42       1    1py              32.033700     108.629797
                         42       1    1pz              32.033700     108.629797

                         43       1    1s               38.729500      11.064748

                         44       1    1px             118.066000     554.748517
                         44       1    1py             118.066000     554.748517
                         44       1    1pz             118.066000     554.748517

                         45       1    1s              138.618000      28.792198

                         46       1    1s              645.424000      91.262829

       Atomic covalent radius [Angstrom]:                                  0.720

       Atomic van der Waals radius [Angstrom]:                             1.470

     The atoms of this atomic kind are PAW atoms (GAPW):
       Hard Gaussian function radius:                                      1.512
       Rho0 radius:                                                        1.512
       Maximum GTO radius used for PAW projector construction:            24.566

     GAPW Soft Basis Set                                TZVPP-MOLOPT-GGA-ae_soft

       Number of orbital shell sets:                                           2
       Number of orbital shells:                                              11
       Number of primitive Cartesian functions:                                3
       Number of Cartesian basis functions:                                   36
       Number of spherical basis functions:                                   31
       Norm type:                                                              2

       Normalised Cartesian orbitals:

                        Set   Shell   Orbital            Exponent    Coefficient

                          1       1    1s                1.800486       0.004609
                                                         0.613429      -0.067525
                                                         0.194582       0.001505

                          1       2    2s                1.800486       0.940599
                                                         0.613429       0.049466
                                                         0.194582       0.022642

                          1       3    3s                1.800486      -0.152255
                                                         0.613429       0.342883
                                                         0.194582       0.087007

                          1       4    4s                1.800486      -0.091539
                                                         0.613429      -0.427486
                                                         0.194582       0.306214

                          1       5    2px               1.800486       2.305775
                                                         0.613429       0.001604
                                                         0.194582      -0.007867
                          1       5    2py               1.800486       2.305775
                                                         0.613429       0.001604
                                                         0.194582      -0.007867
                          1       5    2pz               1.800486       2.305775
                                                         0.613429       0.001604
                                                         0.194582      -0.007867

                          1       6    3px               1.800486       0.066297
                                                         0.613429       0.715705
                                                         0.194582      -0.017292
                          1       6    3py               1.800486       0.066297
                                                         0.613429       0.715705
                                                         0.194582      -0.017292
                          1       6    3pz               1.800486       0.066297
                                                         0.613429       0.715705
                                                         0.194582      -0.017292

                          1       7    4px               1.800486       0.263451
                                                         0.613429       0.056449
                                                         0.194582       0.168868
                          1       7    4py               1.800486       0.263451
                                                         0.613429       0.056449
                                                         0.194582       0.168868
                          1       7    4pz               1.800486       0.263451
                                                         0.613429       0.056449
                                                         0.194582       0.168868

                          1       8    3dx2              1.800486       2.122427
                                                         0.613429       0.011610
                                                         0.194582       0.011281
                          1       8    3dxy              1.800486       3.676152
                                                         0.613429       0.020109
                                                         0.194582       0.019539
                          1       8    3dxz              1.800486       3.676152
                                                         0.613429       0.020109
                                                         0.194582       0.019539
                          1       8    3dy2              1.800486       2.122427
                                                         0.613429       0.011610
                                                         0.194582       0.011281
                          1       8    3dyz              1.800486       3.676152
                                                         0.613429       0.020109
                                                         0.194582       0.019539
                          1       8    3dz2              1.800486       2.122427
                                                         0.613429       0.011610
                                                         0.194582       0.011281

                          1       9    4dx2              1.800486       0.938577
                                                         0.613429       0.660644
                                                         0.194582      -0.010172
                          1       9    4dxy              1.800486       1.625663
                                                         0.613429       1.144268
                                                         0.194582      -0.017619
                          1       9    4dxz              1.800486       1.625663
                                                         0.613429       1.144268
                                                         0.194582      -0.017619
                          1       9    4dy2              1.800486       0.938577
                                                         0.613429       0.660644
                                                         0.194582      -0.010172
                          1       9    4dyz              1.800486       1.625663
                                                         0.613429       1.144268
                                                         0.194582      -0.017619
                          1       9    4dz2              1.800486       0.938577
                                                         0.613429       0.660644
                                                         0.194582      -0.010172

                          1      10    4fx3              1.800486       3.891850
                                                         0.613429       0.247380
                                                         0.194582      -0.002169
                          1      10    4fx2y             1.800486       8.702441
                                                         0.613429       0.553159
                                                         0.194582      -0.004851
                          1      10    4fx2z             1.800486       8.702441
                                                         0.613429       0.553159
                                                         0.194582      -0.004851
                          1      10    4fxy2             1.800486       8.702441
                                                         0.613429       0.553159
                                                         0.194582      -0.004851
                          1      10    4fxyz             1.800486      15.073071
                                                         0.613429       0.958099
                                                         0.194582      -0.008402
                          1      10    4fxz2             1.800486       8.702441
                                                         0.613429       0.553159
                                                         0.194582      -0.004851
                          1      10    4fy3              1.800486       3.891850
                                                         0.613429       0.247380
                                                         0.194582      -0.002169
                          1      10    4fy2z             1.800486       8.702441
                                                         0.613429       0.553159
                                                         0.194582      -0.004851
                          1      10    4fyz2             1.800486       8.702441
                                                         0.613429       0.553159
                                                         0.194582      -0.004851
                          1      10    4fz3              1.800486       3.891850
                                                         0.613429       0.247380
                                                         0.194582      -0.002169

                          2       1    1s         

     AE Potential information for                                            ALL

       Description:                                       All-electron potential
                                          Krack, Parrinello, PCCP 2, 2105 (2000)

       Gaussian exponent of the core charge distribution:              10.470541
       Electronic configuration (s p d ...):                           4   5   0

  2. Atomic kind: C                                     Number of atoms:       2

     Orbital Basis Set                                       TZVPP-MOLOPT-GGA-ae

       Number of orbital shell sets:                                           2
       Number of orbital shells:                                              11
       Number of primitive Cartesian functions:                               12
       Number of Cartesian basis functions:                                   36
       Number of spherical basis functions:                                   31
       Norm type:                                                              2

       Normalised Cartesian orbitals:

                        Set   Shell   Orbital            Exponent    Coefficient

                          1       1    1s               34.417212       0.637474
                                                         6.739673       1.752510
                                                         2.441624       0.446183
                                                         0.806764       0.003692
                                                         0.283960       0.027513
                                                         0.097098       0.019281

                          1       2    2s               34.417212       1.102934
                                                         6.739673      -0.288836
                                                         2.441624      -0.104551
                                                         0.806764       0.362633
                                                         0.283960       0.094997
                                                         0.097098       0.029117

                          1       3    3s               34.417212      -6.120053
                                                         6.739673      -0.168746
                                                         2.441624      -0.199197
                                                         0.806764      -0.252838
                                                         0.283960       0.169545
                                                         0.097098       0.047046

                          1       4    4s               34.417212      -3.786931
                                                         6.739673      -0.401007
                                                         2.441624      -0.053941
                                                         0.806764       0.091223
                                                         0.283960      -0.341415
                                                         0.097098       0.188374

                          1       5    2px              34.417212       2.016536
                                                         6.739673       2.243109
                                                         2.441624       0.695625
                                                         0.806764       0.779023
                                                         0.283960       0.032186
                                                         0.097098       0.005087
                          1       5    2py              34.417212       2.016536
                                                         6.739673       2.243109
                                                         2.441624       0.695625
                                                         0.806764       0.779023
                                                         0.283960       0.032186
                                                         0.097098       0.005087
                          1       5    2pz              34.417212       2.016536
                                                         6.739673       2.243109
                                                         2.441624       0.695625
                                                         0.806764       0.779023
                                                         0.283960       0.032186
                                                         0.097098       0.005087

                          1       6    3px              34.417212       1.690366
                                                         6.739673      -2.720242
                                                         2.441624       0.912249
                                                         0.806764      -0.188640
                                                         0.283960       0.294367
                                                         0.097098       0.008084
                          1       6    3py              34.417212       1.690366
                                                         6.739673      -2.720242
                                                         2.441624       0.912249
                                                         0.806764      -0.188640
                                                         0.283960       0.294367
                                                         0.097098       0.008084
                          1       6    3pz              34.417212       1.690366
                                                         6.739673      -2.720242
                                                         2.441624       0.912249
                                                         0.806764      -0.188640
[...]
 broyden_mixing                      55  6.0    2.940    3.060    3.057    3.120
 put_rho0_on_grid                    57  9.0    0.129    0.152    2.543    2.595
 calculate_vxc_atom                  57  8.0    0.028    0.248    2.560    2.561
 calculate_rho_atom                 171  9.0    0.461    2.501    0.461    2.501
 transfer_rs2pw_250                 115 10.0    0.904    1.041    2.260    2.460
 transfer_pw2rs_250                 115 10.9    0.765    0.846    2.343    2.439
 mp2_ri_gpw_compute_in                1  5.0    0.001    0.001    2.312    2.313
 mp_sum_dv                        15034 11.8    2.177    2.268    2.177    2.268
 mp2_ri_gpw_compute_in_loop           1  6.0    0.000    0.000    2.260    2.261
 gaVxcgb_GC                         112  9.0    0.034    2.234    0.034    2.234
 contract_B_L                         4  7.0    0.003    0.003    1.730    2.176
 mp_sum_l                           941  6.1    1.580    2.008    1.580    2.008
 integrate_four_center_load          57 10.0    0.000    0.001    1.559    1.989
 hfx_load_balance                     1 11.0    0.000    0.000    1.559    1.989
 create_qs_kind_set                   1  2.0    0.000    0.000    1.966    1.967
 hfx_load_balance_range               1 12.0    0.000    0.000    1.537    1.967
 read_qs_kind                         3  3.0    1.095    1.116    1.966    1.967
 mp_cart_create                     413 10.3    1.477    1.923    1.478    1.923
 mp2_eri_3c_integrate                 1  7.0    0.001    0.001    0.483    1.920
 integrate_set_3c                   330  8.0    0.453    1.824    0.482    1.919
 dbt_pgrid_create_expert             84 10.8    0.000    0.000    1.456    1.902
 cp_fm_syevd                         62  7.0    0.000    0.001    1.834    1.838
 integrate_vhg0_rspace               57  8.0    0.075    0.091    1.739    1.803
 mp_waitall_1                     60490 12.0    1.319    1.789    1.319    1.789
 cp_fm_redistribute_end              62  8.0    0.902    1.752    0.905    1.756
 cp_fm_syevd_base                    62  8.0    0.849    1.700    0.849    1.700
 mp_alltoall_d11v                  1152  9.5    0.924    1.585    0.924    1.585
 qs_scf_new_mos                      56  5.0    0.001    0.001    1.549    1.556
 rpa_num_int_RPA_matrix_operati     100  7.0    0.001    0.003    1.335    1.338
 transfer_pw2rs_30                   57 12.0    0.523    0.566    1.186    1.285
 mp_alltoall_d45                     58 10.0    0.620    1.276    0.620    1.276
 transfer_rs2pw_30                   57  9.0    0.539    0.573    1.233    1.263
 eigensolver_symm                    57  6.0    0.002    0.002    1.204    1.206
 fft_wrap_pw1pw2_90                 114 10.5    0.019    0.028    0.490    1.069
 cp2k_distribution_to_z_slices       57  9.0    0.262    0.285    0.630    0.995
 mp_sendrecv_dv                   24510 10.0    0.930    0.976    0.930    0.976
 xc_functional_eval                 280 10.9    0.001    0.001    0.652    0.964
 pbe_lda_eval                       280 11.9    0.651    0.962    0.651    0.962
 powell_optimize                 313498 11.0    0.786    0.934    0.786    0.934
 start_bse_calculation                1  7.0    0.000    0.000    0.879    0.879
 parser_read_line                232775  4.0    0.082    0.089    0.871    0.878
 cp_fm_cholesky_invert              101  8.0    0.829    0.854    0.829    0.854
 calc_pair_dist_radii                 1 10.0    0.372    0.433    0.733    0.848
 pw_scatter_p                       621 12.1    0.785    0.823    0.785    0.823
 parser_read_line_low               252  5.0    0.075    0.359    0.789    0.799
 Vh_1c_gg_integrals                  57  8.0    0.010    0.335    0.384    0.774
 transfer_pw2rs_90                   57 12.0    0.177    0.203    0.703    0.771
 transfer_rs2pw_90                   57  9.0    0.169    0.185    0.647    0.729
 broadcast_input_information        252  6.0    0.188    0.207    0.713    0.728
 rs_grid_zero                       287 11.1    0.703    0.723    0.703    0.723
 pw_gather_p                        567 11.8    0.637    0.717    0.637    0.717
 cp_fm_cholesky_decompose           102  9.0    0.676    0.683    0.676    0.683
 mp_sum_dm                         1429  7.6    0.608    0.681    0.608    0.681
 compute_Erpa_by_freq_int           100  8.0    0.001    0.002    0.675    0.675
 calc_mat_Q                         100  8.0    0.000    0.000    0.621    0.649
 contract_S_to_Q                    100  9.0    0.001    0.001    0.610    0.638
 pw_derive                          507 11.3    0.545    0.604    0.545    0.604
 pw_poisson_rebuild                  57  9.0    0.000    0.000    0.572    0.597
 ps_wavelet_create                    1 10.0    0.000    0.000    0.572    0.597
 RS_z_slice_distribution              1 11.0    0.500    0.588    0.572    0.597
 mp_isendrecv_dv                  49020 12.0    0.336    0.589    0.336    0.589
 compute_vec_Sigma_x_minus_vxc_       1  4.0    0.000    0.000    0.538    0.538
 mp_max_i                           575  2.7    0.145    0.528    0.145    0.528
 pw_integral_ab_c1d_c1d_gs           57  9.0    0.185    0.187    0.249    0.494
 pw_copy                            850 10.6    0.409    0.447    0.409    0.447
 qs_energies_init_hamiltonians        1  3.0    0.000    0.000    0.440    0.440
 build_core_hamiltonian_matrix        1  4.0    0.000    0.000    0.428    0.428
 overlap_condnum                      1  5.0    0.000    0.002    0.425    0.426
 diagonalize_C                        1  8.0    0.000    0.000    0.403    0.403
 transfer_pw2rs_10                   57 12.0    0.137    0.160    0.376    0.395
 transfer_rs2pw_10                   57  9.0    0.138    0.149    0.375    0.383
 arnoldi_conjugate_gradient           5  6.0    0.009    0.010    0.376    0.376
 integrate_four_center_getP          57 10.0    0.020    0.022    0.362    0.374
 create_hermitian_form_of_ABBA        1  8.0    0.000    0.000    0.371    0.372
 mp2_main_alloc_hfx                   1  4.0    0.172    0.371    0.172    0.371
 mp_sum_i                            21  9.7    0.200    0.371    0.200    0.371
 restraint_control                    1  2.0    0.000    0.000    0.199    0.370
 cp_fm_power                          2  7.5    0.007    0.008    0.366    0.367
 mp_bcast_i_src                    1008  7.0    0.256    0.363    0.256    0.363
 rs_gather_matrices                  57 10.0    0.001    0.003    0.320    0.359
 pw_poisson_set                      58  8.9    0.002    0.002    0.342    0.353
 integrate_four_center_dist_KS       57 10.0    0.020    0.022    0.335    0.336
 mp_irecv_dm3                      2064 11.5    0.139    0.330    0.139    0.330
 grid_integrate_task_list            57 10.0    0.031    0.319    0.031    0.319
 mp_bcast_am_src                    252  7.0    0.243    0.289    0.264    0.310
 mp_rank_compare                   1188 12.9    0.281    0.289    0.281    0.289
 init_scf_run                         1  3.0    0.000    0.000    0.281    0.281
 calculate_rho_atom_coeff            57  6.0    0.023    0.053    0.280    0.281
 pw_copy_to_array                   567 11.8    0.222    0.269    0.222    0.269
 mp_isend_dm3                      2064 11.5    0.130    0.263    0.130    0.263
 calculate_dm_sparse                 56  6.0    0.000    0.000    0.251    0.257
 cp_dbcsr_plus_fm_fm_t               56  7.0    0.001    0.001    0.251    0.256
 scf_env_initial_rho_setup            1  4.0    0.000    0.000    0.254    0.255
 dbt_total                            8  8.0    0.000    0.000    0.253    0.253
 dbt_contract                         4  9.0    0.001    0.001    0.238    0.238
 dbcsr_sym_matrix_vector_mult      1286  7.0    0.020    0.022    0.175    0.234
 update_ks_atom                      57  8.0    0.014    0.028    0.210    0.226
 pw_copy_from_array                 621 12.1    0.164    0.217    0.164    0.217
 pw_axpy                            565  9.3    0.189    0.215    0.189    0.215
 dbcsr_multiply_generic             117  8.1    0.005    0.006    0.199    0.208
 fft_wrap_pw1pw2_30                 114 10.5    0.003    0.004    0.193    0.204
 mp_bcast_dm                        912  9.0    0.196    0.202    0.196    0.202
 dbt_tas_multiply                     8 11.5    0.000    0.000    0.195    0.195
 dbt_tas_total                        8 12.5    0.002    0.002    0.195    0.195
 cp_fm_to_fm_submat_general         112 10.1    0.134    0.179    0.134    0.179
 qs_init_subsys                       1  2.0    0.005    0.005    0.175    0.175
 dbcsr_complete_redistribute        211  8.5    0.011    0.014    0.162    0.165
 mp_isend_dv                      18148 11.8    0.116    0.160    0.116    0.160
 qs_env_setup                         1  3.0    0.000    0.000    0.153    0.157
 qs_env_rebuild_pw_env                2  3.5    0.000    0.000    0.152    0.156
 pw_env_rebuild                       1  5.0    0.001    0.001    0.152    0.155
 mp_alltoall_z11v                   228 13.5    0.139    0.150    0.139    0.150
 copy_dbcsr_to_fm                    95  6.7    0.002    0.002    0.141    0.147
 pw_grid_setup                        4  6.0    0.000    0.000    0.128    0.131
 pw_grid_setup_internal               4  7.0    0.003    0.004    0.128    0.131
 pw_zero                            338 10.3    0.112    0.128    0.112    0.128
 calculate_rho0_atom                171  9.0    0.112    0.117    0.112    0.117
 dbcsr_add_d                       1973  7.1    0.002    0.002    0.016    0.116
 dbcsr_add_anytype                 1973  8.1    0.002    0.014    0.014    0.114
 dbt_tas_dbm                          8 13.5    0.000    0.000    0.110    0.110
 dbm_multiply                         8 15.5    0.093    0.108    0.093    0.108
 yz_to_xz                           114 14.0    0.011    0.012    0.095    0.106
 fft_wrap_pw1pw2_10                 114 10.5    0.001    0.001    0.093    0.096
 abc_contract                       330  9.0    0.029    0.094    0.029    0.094
 copy_fm_to_dbcsr                   116  8.1    0.001    0.001    0.090    0.093
 multiply_cannon                    117  9.1    0.011    0.012    0.086    0.091
 dbcsr_rep_row_to_rep_col_vec      1286  8.0    0.006    0.008    0.031    0.088
 dbcsr_finalize                    3269 10.7    0.007    0.029    0.025    0.088
 dbcsr_col_vec_to_rep_row          1286  8.0    0.009    0.011    0.049    0.087
 dbt_tas_mm_1N                        4 14.5    0.000    0.000    0.071    0.084
 cp_fm_redistribute_start            62  8.0    0.063    0.064    0.079    0.083
 make_m2s                           234  9.1    0.004    0.005    0.078    0.083
 dbt_tas_estimate_result_nze          4 12.0    0.001    0.002    0.076    0.077
 cp_fm_uplo_to_full                 104  8.0    0.036    0.076    0.036    0.076
 pw_grid_sort                         4  8.0    0.044    0.045    0.068    0.071
 Q_trace_and_add_unit_matrix        100  8.0    0.001    0.001    0.039    0.070
 dbcsr_desymmetrize_deep             97  7.7    0.003    0.003    0.064    0.069
 vxc_of_r_new                       224  9.0    0.000    0.010    0.001    0.068
 multiply_cannon_loop               117 10.1    0.014    0.015    0.062    0.066
 mp_comm_split_direct                48 14.5    0.045    0.066    0.045    0.066
 offload_free_buffer                 65  8.3    0.003    0.065    0.003    0.065
 xz_to_yz                           114 11.0    0.007    0.008    0.062    0.065
 mp_alltoall_i11v                   730  9.4    0.059    0.061    0.059    0.061
 scale_and_distribute               114 10.0    0.055    0.061    0.055    0.061
 postprocess_bse                      1  9.0    0.000    0.000    0.055    0.056
 mp_bcast_dv                       1348  9.0    0.021    0.054    0.021    0.054
 pw_scale                           225  9.5    0.040    0.052    0.040    0.052
 scf_post_calculation_gpw             1  3.0    0.000    0.000    0.052    0.052
 write_available_results              1  4.0    0.000    0.000    0.052    0.052
 write_mo_free_results                1  5.0    0.003    0.004    0.052    0.052
 mult_B_with_W                        1  8.0    0.000    0.000    0.050    0.052
 get_2c_integrals                     1  6.0    0.000    0.000    0.050    0.051
 make_images                        234 10.1    0.011    0.012    0.044    0.047
 mp_maxloc_dv                      1527  1.0    0.043    0.046    0.043    0.046
 mp_alltoall_i22                    308  9.2    0.039    0.046    0.039    0.046
 mp2_main_free_hfx                    1  4.0    0.018    0.046    0.018    0.046
 mp_bcast_iv                        309  6.9    0.021    0.046    0.021    0.046
 mixing_init                          1  5.0    0.041    0.044    0.045    0.045
 dbcsr_merge_all                   2581 11.5    0.010    0.035    0.013    0.043
 create_integ_mat                     4  6.0    0.002    0.002    0.040    0.041
 dbt_copy                            12 10.2    0.000    0.001    0.038    0.040
 cp_fm_symm                          57  7.0    0.037    0.039    0.037    0.039
 dbcsr_iterator_start             17267  8.9    0.021    0.031    0.025    0.038
 array2fm                             4  7.0    0.000    0.000    0.034    0.038
 dbcsr_copy                        5749  7.7    0.020    0.023    0.033    0.038
 hybrid_alltoall_any                331 11.1    0.006    0.007    0.032    0.035
 dbt_distribution_new_expert         76 10.1    0.001    0.001    0.033    0.033
 dbt_remap                            8 10.0    0.002    0.002    0.031    0.031
 dbcsr_create_new                  7916  9.1    0.023    0.024    0.028    0.031
 dbt_tas_distribution_new            99 11.9    0.020    0.020    0.030    0.030
 mp_irecv_dv                      17967 11.8    0.017    0.029    0.017    0.029
 print_transition_amplitudes          1 10.0    0.000    0.000    0.028    0.028
 print_transition_amplitudes_co      50 11.0    0.000    0.001    0.028    0.028
 filter_eigvec_contrib               50 12.0    0.016    0.017    0.028    0.028
 create_A                             1  8.0    0.001    0.001    0.027    0.028
 dbt_reshape                          8 11.8    0.009    0.010    0.026    0.027
 sort_shells                          4  9.0    0.024    0.027    0.024    0.027
 dbcsr_iterator_stop              17267  8.9    0.016    0.021    0.019    0.025
 get_multipoles_mo                    1 10.0    0.000    0.000    0.024    0.025
 dbt_tas_mm_2                         4 14.5    0.000    0.000    0.024    0.024
 cube_transpose_2                   114 11.0    0.002    0.003    0.019    0.023
 create_B                             1  8.0    0.000    0.000    0.022    0.023
 hirshfeld_integration                1  6.0    0.000    0.002    0.023    0.023
 dbt_split_blocks_generic            20  8.8    0.005    0.005    0.022    0.023
 calculate_hirshfeld_normalizat       1  6.0    0.000    0.002    0.022    0.023
 compute_2c_integrals                 1  7.0    0.001    0.001    0.022    0.023
 rs_scatter_matrices                 57  7.0    0.001    0.001    0.020    0.022
 calc_fm_mat_S_rpa                  100  9.0    0.011    0.021    0.011    0.021
 dbcsr_crop_matrix                  280 10.0    0.002    0.002    0.020    0.021
 array2fm_info                        4  8.0    0.017    0.020    0.018    0.021
 mp_bcast_iv_src                    252  7.0    0.006    0.020    0.006    0.020
 dbt_tas_replicate                    8 13.5    0.007    0.010    0.018    0.019
 create_fast_row_vec_access        2572  8.0    0.011    0.012    0.016    0.019
 mp_bcast_av                        764  1.0    0.005    0.007    0.016    0.018
 create_fast_col_vec_access        2572  8.0    0.010    0.012    0.016    0.018
 cube_transpose_1                   114 14.0    0.002    0.002    0.016    0.018
 dbt_create_new                      40  9.5    0.001    0.001    0.017    0.017
 mp_sum_iv                          303  9.7    0.015    0.017    0.015    0.017
 mp_cart_rank                     57348  9.8    0.015    0.017    0.015    0.017
 compute_2c_integrals_loop_lm         1  8.0    0.000    0.000    0.006    0.017
 mp2_eri_2c_integrate                 1  9.0    0.001    0.001    0.006    0.017
 mp_cart_sub                        196  8.8    0.015    0.016    0.015    0.016
 integrate_set_2c                  1365 10.0    0.005    0.015    0.006    0.016
 dbcsr_copy_submatrix               280 11.0    0.002    0.003    0.015    0.016
 compute_max_radius                   1  6.0    0.015    0.016    0.015    0.016
 mp_waitall_2                        48 15.6    0.013    0.016    0.013    0.016
 make_images_sizes                  234 11.1    0.000    0.000    0.014    0.016
 pw_grid_assign                       4  8.0    0.014    0.015    0.015    0.016
 mp_alltoall_i44                    234 12.1    0.014    0.015    0.014    0.015
 hfx_load_balance_redist              1 12.0    0.010    0.012    0.013    0.015
 multiply_cannon_metrocomm3        2252 11.1    0.004    0.004    0.010    0.015
 write_mo_set_to_restart             56  5.0    0.001    0.004    0.005    0.015
 dbt_tas_create_split                44 13.2    0.000    0.000    0.015    0.015
 dbt_tas_reshape                      9 13.8    0.000    0.000    0.014    0.015
 dbt_tas_create_split_rows_or_c      44 14.2    0.000    0.000    0.015    0.015
 hfx_create                           1  2.0    0.014    0.015    0.014    0.015
 cp_dbcsr_sm_fm_multiply              3 11.0    0.000    0.000    0.015    0.015
 dbcsr_work_create                 3095 10.6    0.003    0.010    0.005    0.015
 dbt_communicate_buffer               8 12.8    0.002    0.002    0.014    0.015
 pw_grid_distribute                   4  8.0    0.010    0.011    0.014    0.015
 convert_to_new_pgrid                24 13.5    0.006    0.007    0.013    0.014
 pw_grid_remap                        4  8.0    0.003    0.003    0.012    0.014
 multiply_cannon_metrocomm4        2074 11.1    0.006    0.006    0.012    0.014
 self_consistency_check              56  5.0    0.000    0.000    0.011    0.014
 xc_pw_smooth                        56 10.0    0.000    0.000    0.012    0.014
 write_mo_set_low                     3  6.0    0.000    0.000    0.004    0.014
 cp_fm_write_unformatted              3  7.0    0.004    0.011    0.004    0.014
 cp_sm_mix                           56  6.0    0.000    0.001    0.011    0.013
 dbcsr_work_destroy_all            3095 11.6    0.003    0.010    0.004    0.013
 mp_max_d                            58  6.9    0.010    0.013    0.010    0.013
 mp_sum_im                        10879 13.0    0.011    0.013    0.011    0.013
 make_images_data                   234 11.1    0.003    0.003    0.009    0.013
 dbcsr_data_release               39711 10.3    0.008    0.012    0.008    0.012
 ao_to_mo_and_store_B_mult_gw_1       7  7.0    0.000    0.000    0.010    0.012
 multiply_cannon_multrec           2252 11.1    0.007    0.011    0.008    0.012
 dbm_redistribute                    15 13.9    0.011    0.012    0.011    0.012
 multiply_cannon_metrocomm2        2013 11.1    0.006    0.006    0.011    0.012
 -------------------------------------------------------------------------------

 The number of warnings for this run is : 1
 
 -------------------------------------------------------------------------------
  **** **** ******  **  PROGRAM ENDED AT                 2025-04-11 16:54:28.804
 ***** ** ***  *** **   PROGRAM RAN ON                              i08r05c02s09
 **    ****   ******    PROGRAM RAN BY                                   di38fab
 ***** **    ** ** **   PROGRAM PROCESS ID                               1373935
  **** **  *******  **  PROGRAM STOPPED IN /hppfs/scratch/04/di38fab/07_MOL_non_
                                           aug/05_MOL_non_aug/05_MOL/W4-11+ALK/c
                                           2h5f/TZVPP/GW+BSE
