 DBCSR| CPU Multiplication driver                                           BLAS (U)
 DBCSR| Multrec recursion limit                                              512 (U)
 DBCSR| Multiplication stack size                                           1000 (D)
 DBCSR| Maximum elements for images                                    UNLIMITED (U)
 DBCSR| Multiplicative factor virtual images                                   1 (U)
 DBCSR| Use multiplication densification                                       T (D)
 DBCSR| Multiplication size stacks                                             3 (U)
 DBCSR| Use memory pool for CPU allocation                                     F (U)
 DBCSR| Number of 3D layers                                               SINGLE (U)
 DBCSR| Use MPI memory allocation                                              F (U)
 DBCSR| Use RMA algorithm                                                      F (U)
 DBCSR| Use Communication thread                                               T (U)
 DBCSR| Communication thread load                                             75 (D)
 DBCSR| MPI: My process id                                                     0
 DBCSR| MPI: Number of processes                                              96
 DBCSR| OMP: Current number of threads                                         4
 DBCSR| OMP: Max number of threads                                             4
 DBCSR| Split modifier for TAS multiplication algorithm                  1.0E+00 (U)


  **** **** ******  **  PROGRAM STARTED AT               2025-04-28 07:35:02.794
 ***** ** ***  *** **   PROGRAM STARTED ON                          i03r01c02s12
 **    ****   ******    PROGRAM STARTED BY                               di38fab
 ***** **    ** ** **   PROGRAM PROCESS ID                               2279408
  **** **  *******  **  PROGRAM STARTED IN /hppfs/scratch/04/di38fab/07_MOL_non_
                                           aug/05_MOL_non_aug/05_MOL/W4-11+ALK/b
                                           ef2/cc-pVTZ/TDDFT

 CP2K| version string:                 CP2K version 2025.1 (Development Version)
 CP2K| source code revision number:                             unknown revision
 CP2K| cp2kflags: omp libint fftw3 libxc parallel scalapack max_contr=4         
 CP2K| is freely available from                            https://www.cp2k.org/
 CP2K| Program compiled at                         Thu Apr 10 16:20:23 CEST 2025
 CP2K| Program compiled on                                               login01
 CP2K| Program compiled for                                        Supermuc-foss
 CP2K| Data directory path                  /hppfs/work/pn36zo/di38fab/cp2k/data
 CP2K| Input file name                                                    GW.inp

 GLOBAL| Force Environment number                                              1
 GLOBAL| Basis set file name            /hppfs/scratch/04/di38fab/04_TMD/BASIS_A
 GLOBAL| Potential file name            /hppfs/work/pn36zo/di38fab/cp2k/data/ALL
 GLOBAL| MM Potential file name                                     MM_POTENTIAL
 GLOBAL| Coordinate file name                                      __STD_INPUT__
 GLOBAL| Method name                                                        CP2K
 GLOBAL| Project name                                                       MoS2
 GLOBAL| Run type                                                         ENERGY
 GLOBAL| FFT library                                                       FFTW3
 GLOBAL| Diagonalization library                                       ScaLAPACK
 GLOBAL| DGEMM library                                                      BLAS
 GLOBAL| Orthonormality check for eigenvectors                          DISABLED
 GLOBAL| Matrix multiplication library                                 ScaLAPACK
 GLOBAL| All-to-all communication in single precision                          F
 GLOBAL| FFTs using library dependent lengths                                  F
 GLOBAL| Grid backend                                                       AUTO
 GLOBAL| Global print level                                               MEDIUM
 GLOBAL| MPI I/O enabled                                                       T
 GLOBAL| Total number of message passing processes                            96
 GLOBAL| Number of threads for this process                                    4
 GLOBAL| This output is from process                                           0
 GLOBAL| OpenMP stack size per thread (OMP_STACKSIZE)                    default
 GLOBAL| CPU model name             Intel(R) Xeon(R) Platinum 8174 CPU @ 3.10GHz

 MEMORY| system memory details [Kb]
 MEMORY|                        rank 0           min           max       average
 MEMORY| MemTotal             98436660      98436660      98436660      98436660
 MEMORY| MemFree              84913492      84725348      84913492      84808747
 MEMORY| Buffers                     0             0             0             0
 MEMORY| Cached                2379588       2376416       2395976       2387041
 MEMORY| Slab                  1114276       1100532       1124516       1111616
 MEMORY| SReclaimable           262884        249912        262884        255728
 MEMORY| MemLikelyFree        87555964      87375368      87555964      87451517


 *** Fundamental physical constants (SI units) ***

 *** Literature: B. J. Mohr and B. N. Taylor,
 ***             CODATA recommended values of the fundamental physical
 ***             constants: 2006, Web Version 5.1
 ***             http://physics.nist.gov/constants

 Speed of light in vacuum [m/s]                             2.99792458000000E+08
 Magnetic constant or permeability of vacuum [N/A**2]       1.25663706143592E-06
 Electric constant or permittivity of vacuum [F/m]          8.85418781762039E-12
 Planck constant (h) [J*s]                                  6.62606896000000E-34
 Planck constant (h-bar) [J*s]                              1.05457162825177E-34
 Elementary charge [C]                                      1.60217648700000E-19
 Electron mass [kg]                                         9.10938215000000E-31
 Electron g factor [ ]                                     -2.00231930436220E+00
 Proton mass [kg]                                           1.67262163700000E-27
 Fine-structure constant                                    7.29735253760000E-03
 Rydberg constant [1/m]                                     1.09737315685270E+07
 Avogadro constant [1/mol]                                  6.02214179000000E+23
 Boltzmann constant [J/K]                                   1.38065040000000E-23
 Atomic mass unit [kg]                                      1.66053878200000E-27
 Bohr radius [m]                                            5.29177208590000E-11

 *** Conversion factors ***

 [u] -> [a.u.]                                              1.82288848426455E+03
 [Angstrom] -> [Bohr] = [a.u.]                              1.88972613288564E+00
 [a.u.] = [Bohr] -> [Angstrom]                              5.29177208590000E-01
 [a.u.] -> [s]                                              2.41888432650478E-17
 [a.u.] -> [fs]                                             2.41888432650478E-02
 [a.u.] -> [J]                                              4.35974393937059E-18
 [a.u.] -> [N]                                              8.23872205491840E-08
 [a.u.] -> [K]                                              3.15774647902944E+05
 [a.u.] -> [kJ/mol]                                         2.62549961709828E+03
 [a.u.] -> [kcal/mol]                                       6.27509468713739E+02
 [a.u.] -> [Pa]                                             2.94210107994716E+13
 [a.u.] -> [bar]                                            2.94210107994716E+08
 [a.u.] -> [atm]                                            2.90362800883016E+08
 [a.u.] -> [eV]                                             2.72113838565563E+01
 [a.u.] -> [Hz]                                             6.57968392072181E+15
 [a.u.] -> [1/cm] (wave numbers)                            2.19474631370540E+05
 [a.u./Bohr**2] -> [1/cm]                                   5.14048714338585E+03
 

 CELL_TOP| Volume [angstrom^3]:                                     27000.000000
 CELL_TOP| Vector a [angstrom    30.000     0.000     0.000   |a| =    30.000000
 CELL_TOP| Vector b [angstrom     0.000    30.000     0.000   |b| =    30.000000
 CELL_TOP| Vector c [angstrom     0.000     0.000    30.000   |c| =    30.000000
 CELL_TOP| Angle (b,c), alpha [degree]:                                90.000000
 CELL_TOP| Angle (a,c), beta  [degree]:                                90.000000
 CELL_TOP| Angle (a,b), gamma [degree]:                                90.000000
 CELL_TOP| Numerically orthorhombic:                                         YES
 CELL_TOP| Periodicity                                                      NONE

 GENERATE|  Preliminary Number of Bonds generated:                             0
 GENERATE|  Achieved consistency in connectivity generation.

 CELL| Volume [angstrom^3]:                                         27000.000000
 CELL| Vector a [angstrom]:      30.000     0.000     0.000   |a| =    30.000000
 CELL| Vector b [angstrom]:       0.000    30.000     0.000   |b| =    30.000000
 CELL| Vector c [angstrom]:       0.000     0.000    30.000   |c| =    30.000000
 CELL| Angle (b,c), alpha [degree]:                                    90.000000
 CELL| Angle (a,c), beta  [degree]:                                    90.000000
 CELL| Angle (a,b), gamma [degree]:                                    90.000000
 CELL| Numerically orthorhombic:                                             YES
 CELL| Periodicity                                                          NONE

 CELL_REF| Volume [angstrom^3]:                                     27000.000000
 CELL_REF| Vector a [angstrom    30.000     0.000     0.000   |a| =    30.000000
 CELL_REF| Vector b [angstrom     0.000    30.000     0.000   |b| =    30.000000
 CELL_REF| Vector c [angstrom     0.000     0.000    30.000   |c| =    30.000000
 CELL_REF| Angle (b,c), alpha [degree]:                                90.000000
 CELL_REF| Angle (a,c), beta  [degree]:                                90.000000
 CELL_REF| Angle (a,b), gamma [degree]:                                90.000000
 CELL_REF| Numerically orthorhombic:                                         YES
 CELL_REF| Periodicity                                                      NONE

 *******************************************************************************
 *******************************************************************************
 **                                                                           **
 **     #####                         ##              ##                      **
 **    ##   ##            ##          ##              ##                      **
 **   ##     ##                       ##            ######                    **
 **   ##     ##  ##   ##  ##   #####  ##  ##   ####   ##    #####    #####    **
 **   ##     ##  ##   ##  ##  ##      ## ##   ##      ##   ##   ##  ##   ##   **
 **   ##  ## ##  ##   ##  ##  ##      ####     ###    ##   ######   ######    **
 **    ##  ###   ##   ##  ##  ##      ## ##      ##   ##   ##       ##        **
 **     #######   #####   ##   #####  ##  ##  ####    ##    #####   ##        **
 **           ##                                                    ##        **
 **                                                                           **
 **                                                ... make the atoms dance   **
 **                                                                           **
 **            Copyright (C) by CP2K developers group (2000-2025)             **
 **                      J. Chem. Phys. 152, 194103 (2020)                    **
 **                                                                           **
 *******************************************************************************

 DFT| Spin restricted Kohn-Sham (RKS) calculation                            RKS
 DFT| Multiplicity                                                             1
 DFT| Number of spin states                                                    1
 DFT| Charge                                                                   0
 DFT| Self-interaction correction (SIC)                                       NO
 DFT| Cutoffs: density                                              1.000000E-10
 DFT|          gradient                                             1.000000E-10
 DFT|          tau                                                  1.000000E-10
 DFT|          cutoff_smoothing_range                               0.000000E+00
 DFT| XC density smoothing                                                  NONE
 DFT| XC derivatives                                                          PW

 FUNCTIONAL| PBE:
 FUNCTIONAL| J.P.Perdew, K.Burke, M.Ernzerhof, Phys. Rev. Letter, vol. 77, n 18,
 FUNCTIONAL|  pp. 3865-3868, (1996)sx=0.750sc=1.000{spin unpolarized}           


 QS| Method:                                                                GAPW
 QS| Density plane wave grid type                        NON-SPHERICAL FULLSPACE
 QS| Number of grid levels:                                                    4
 QS| Density cutoff [a.u.]:                                                250.0
 QS| Multi grid cutoff [a.u.]: 1) grid level                               250.0
 QS|                           2) grid level                                83.3
 QS|                           3) grid level                                27.8
 QS|                           4) grid level                                 9.3
 QS| Grid level progression factor:                                          3.0
 QS| Relative density cutoff [a.u.]:                                        50.0
 QS| Interaction thresholds: eps_pgf_orb:                                1.0E-12
 QS|                         eps_filter_matrix:                          0.0E+00
 QS|                         eps_core_charge:                            1.0E-14
 QS|                         eps_rho_gspace:                             1.0E-12
 QS|                         eps_rho_rspace:                             1.0E-12
 QS|                         eps_gvg_rspace:                             1.0E-06
 QS|                         eps_ppl:                                    1.0E-02
 QS|                         eps_ppnl:                                   1.0E-08
 QS| GAPW|      One center basis from orbital basis primitives
 QS| GAPW|                   eps_fit:                                    1.0E-04
 QS| GAPW|                   eps_iso:                                    1.0E-12
 QS| GAPW|                   eps_svd:                                    1.0E-08
 QS| GAPW|                   eps_cpc:                                    1.0E-12
 QS| GAPW|   atom-r-grid: quadrature:                                     GC_LOG
 QS| GAPW|      atom-s-grid:  max l :                                          6
 QS| GAPW|      max_l_rho0 :                                                   2


 ATOMIC KIND INFORMATION

  1. Atomic kind: BE                                    Number of atoms:       1

     Orbital Basis Set                                                   cc-pVTZ

       Number of orbital shell sets:                                           4
       Number of orbital shells:                                              10
       Number of primitive Cartesian functions:                               19
       Number of Cartesian basis functions:                                   35
       Number of spherical basis functions:                                   30
       Norm type:                                                              2

       Normalised Cartesian orbitals:

                        Set   Shell   Orbital            Exponent    Coefficient

                          1       1    1s             6863.000000       0.126826
                                                      1030.000000       0.236613
                                                       234.700000       0.403941
                                                        66.560000       0.630394
                                                        21.690000       0.859328
                                                         7.734000       0.932635
                                                         2.916000       0.679734
                                                         1.130000       0.207996
                                                         0.257700       0.004690
                                                         0.110100      -0.000991
                                                         0.044090       0.000130

                          1       2    2s             6863.000000       0.000000
                                                      1030.000000       0.000000
                                                       234.700000       0.000000
                                                        66.560000       0.000000
                                                        21.690000       0.000000
                                                         7.734000       0.000000
                                                         2.916000       0.000000
                                                         1.130000       0.000000
                                                         0.257700       0.257778
                                                         0.110100       0.000000
                                                         0.044090       0.000000

                          1       3    3s             6863.000000      -0.023108
                                                      1030.000000      -0.043150
                                                       234.700000      -0.074190
                                                        66.560000      -0.116456
                                                        21.690000      -0.165655
                                                         7.734000      -0.192165
                                                         2.916000      -0.182187
                                                         1.130000      -0.106161
                                                         0.257700       0.058780
                                                         0.110100       0.078661
                                                         0.044090       0.021798

                          1       4    4s             6863.000000       0.000000
                                                      1030.000000       0.000000
                                                       234.700000       0.000000
                                                        66.560000       0.000000
                                                        21.690000       0.000000
                                                         7.734000       0.000000
                                                         2.916000       0.000000
                                                         1.130000       0.000000
                                                         0.257700       0.000000
                                                         0.110100       0.000000
                                                         0.044090       0.068575

                          2       1    1px               7.436000       0.000000
                                                         1.577000       0.000000
                                                         0.435200       0.000000
                                                         0.143800       0.126223
                                                         0.049940       0.000000
                          2       1    1py               7.436000       0.000000
                                                         1.577000       0.000000
                                                         0.435200       0.000000
                                                         0.143800       0.126223
                                                         0.049940       0.000000
                          2       1    1pz               7.436000       0.000000
                                                         1.577000       0.000000
                                                         0.435200       0.000000
                                                         0.143800       0.126223
                                                         0.049940       0.000000

                          2       2    2px               7.436000       0.187913
                                                         1.577000       0.158330
                                                         0.435200       0.125045
                                                         0.143800       0.066103
                                                         0.049940       0.011893
                          2       2    2py               7.436000       0.187913
                                                         1.577000       0.158330
                                                         0.435200       0.125045
                                                         0.143800       0.066103
                                                         0.049940       0.011893
                          2       2    2pz               7.436000       0.187913
                                                         1.577000       0.158330
                                                         0.435200       0.125045
                                                         0.143800       0.066103
                                                         0.049940       0.011893

                          2       3    3px               7.436000       0.000000
                                                         1.577000       0.000000
                                                         0.435200       0.000000
                                                         0.143800       0.000000
                                                         0.049940       0.033651
                          2       3    3py               7.436000       0.000000
                                                         1.577000       0.000000
                                                         0.435200       0.000000
                                                         0.143800       0.000000
                                                         0.049940       0.033651
                          2       3    3pz               7.436000       0.000000
                                                         1.577000       0.000000
                                                         0.435200       0.000000
                                                         0.143800       0.000000
                                                         0.049940       0.033651

                          3       1    1dx2              0.349300       0.261220
                                                         0.172400       0.000000
                          3       1    1dxy              0.349300       0.452447
                                                         0.172400       0.000000
                          3       1    1dxz              0.349300       0.452447
                                                         0.172400       0.000000
                          3       1    1dy2              0.349300       0.261220
                                                         0.172400       0.000000
                          3       1    1dyz              0.349300       0.452447
                                                         0.172400       0.000000
                          3       1    1dz2              0.349300       0.261220
                                                         0.172400       0.000000

                          3       2    2dx2              0.349300       0.000000
                                                         0.172400       0.075919
                          3       2    2dxy              0.349300       0.000000
                                                         0.172400       0.131495
                          3       2    2dxz              0.349300       0.000000
                                                         0.172400       0.131495
                          3       2    2dy2              0.349300       0.000000
                                                         0.172400       0.075919
                          3       2    2dyz              0.349300       0.000000
                                                         0.172400       0.131495
                          3       2    2dz2              0.349300       0.000000
                                                         0.172400       0.075919

                          4       1    1fx3              0.342300       0.131938
                          4       1    1fx2y             0.342300       0.295022
                          4       1    1fx2z             0.342300       0.295022
                          4       1    1fxy2             0.342300       0.295022
                          4       1    1fxyz             0.342300       0.510994
                          4       1    1fxz2             0.342300       0.295022
                          4       1    1fy3              0.342300       0.131938
                          4       1    1fy2z             0.342300       0.295022
                          4       1    1fyz2             0.342300       0.295022
                          4       1    1fz3              0.342300       0.131938

     RI Auxiliary Basis Set                                        cc-pVTZ-RIFIT

       Number of orbital shell sets:                                          23
       Number of orbital shells:                                              23
       Number of primitive Cartesian functions:                               23
       Number of Cartesian basis functions:                                  101
       Number of spherical basis functions:                                   81
       Norm type:                                                              2

       Normalised Cartesian orbitals:

                        Set   Shell   Orbital            Exponent    Coefficient

                          1       1    1dx2              0.100698       0.029628
                          1       1    1dxy              0.100698       0.051316
                          1       1    1dxz              0.100698       0.051316
                          1       1    1dy2              0.100698       0.029628
                          1       1    1dyz              0.100698       0.051316
                          1       1    1dz2              0.100698       0.029628

                          2       1    1s                0.102049       0.128682

                          3       1    1px               0.107562       0.087804
                          3       1    1py               0.107562       0.087804
                          3       1    1pz               0.107562       0.087804

                          4       1    1s                0.186293       0.202096

                          5       1    1px               0.244500       0.245069
                          5       1    1py               0.244500       0.245069
                          5       1    1pz               0.244500       0.245069

                          6       1    1fx3              0.254672       0.067828
                          6       1    1fx2y             0.254672       0.151669
                          6       1    1fx2z             0.254672       0.151669
                          6       1    1fxy2             0.254672       0.151669
                          6       1    1fxyz             0.254672       0.262699
                          6       1    1fxz2             0.254672       0.151669
                          6       1    1fy3              0.254672       0.067828
                          6       1    1fy2z             0.254672       0.151669
                          6       1    1fyz2             0.254672       0.151669
                          6       1    1fz3              0.254672       0.067828

                          7       1    1dx2              0.265357       0.161478
                          7       1    1dxy              0.265357       0.279688
                          7       1    1dxz              0.265357       0.279688
                          7       1    1dy2              0.265357       0.161478
                          7       1    1dyz              0.265357       0.279688
                          7       1    1dz2              0.265357       0.161478

                          8       1    1s                0.450645       0.392000

                          9       1    1fx3              0.452696       0.247468
                          9       1    1fx2y             0.452696       0.553356
                          9       1    1fx2z             0.452696       0.553356
                          9       1    1fxy2             0.452696       0.553356
                          9       1    1fxyz             0.452696       0.958440
                          9       1    1fxz2             0.452696       0.553356
                          9       1    1fy3              0.452696       0.247468
                          9       1    1fy2z             0.452696       0.553356
                          9       1    1fyz2             0.452696       0.553356
                          9       1    1fz3              0.452696       0.247468

                         10       1    1dx2              0.488912       0.470504
                         10       1    1dxy              0.488912       0.814937
                         10       1    1dxz              0.488912       0.814937
                         10       1    1dy2              0.488912       0.470504
                         10       1    1dyz              0.488912       0.814937
                         10       1    1dz2              0.488912       0.470504

                         11       1    1gx4              0.500000       0.165426
                         11       1    1gx3y             0.500000       0.437675
                         11       1    1gx3z             0.500000       0.437675
                         11       1    1gx2y2            0.500000       0.565036
                         11       1    1gx2yz            0.500000       0.978672
                         11       1    1gx2z2            0.500000       0.565036
                         11       1    1gxy3             0.500000       0.437675
                         11       1    1gxy2z            0.500000       0.978672
                         11       1    1gxyz2            0.500000       0.978672
                         11       1    1gxz3             0.500000       0.437675
                         11       1    1gy4              0.500000       0.165426
                         11       1    1gy3z             0.500000       0.437675
                         11       1    1gy2z2            0.500000       0.565036
                         11       1    1gyz3             0.500000       0.437675
                         11       1    1gz4              0.500000       0.165426

                         12       1    1px               0.550086       0.675271
                         12       1    1py               0.550086       0.675271
                         12       1    1pz               0.550086       0.675271

                         13       1    1s                1.079390       0.754734

                         14       1    1px               1.152630       1.702364
                         14       1    1py               1.152630       1.702364
                         14       1    1pz               1.152630       1.702364

                         15       1    1fx3              1.670530       4.670642
                         15       1    1fx2y             1.670530      10.443873
                         15       1    1fx2z             1.670530      10.443873
                         15       1    1fxy2             1.670530      10.443873
                         15       1    1fxyz             1.670530      18.089319
                         15       1    1fxz2             1.670530      10.443873
                         15       1    1fy3              1.670530       4.670642
                         15       1    1fy2z             1.670530      10.443873
                         15       1    1fyz2             1.670530      10.443873
                         15       1    1fz3              1.670530       4.670642

                         16       1    1dx2              1.698000       4.157195
                         16       1    1dxy              1.698000       7.200473
                         16       1    1dxz              1.698000       7.200473
                         16       1    1dy2              1.698000       4.157195
                         16       1    1dyz              1.698000       7.200473
                         16       1    1dz2              1.698000       4.157195

                         17       1    1s                3.300360       1.745143

                         18       1    1px               3.563240       6.978249
                         18       1    1py               3.563240       6.978249
                         18       1    1pz               3.563240       6.978249

                         19       1    1dx2              5.022910      27.738400
                         19       1    1dxy              5.022910      48.044317
                         19       1    1dxz              5.022910      48.044317
                         19       1    1dy2              5.022910      27.738400
                         19       1    1dyz              5.022910      48.044317
                         19       1    1dz2              5.022910      27.738400

                         20       1    1s                8.957890       3.690323

                         21       1    1px              12.958500      35.045600
                         21       1    1py              12.958500      35.045600
                         21       1    1pz              12.958500      35.045600

                         22       1    1s               27.420100       8.540079

                         23       1    1s              115.410000      25.095316

       Atomic covalent radius [Angstrom]:                                  0.900

       Atomic van der Waals radius [Angstrom]:                             1.530

     The atoms of this atomic kind are PAW atoms (GAPW):
       Hard Gaussian function radius:                                      1.512
       Rho0 radius:                                                        1.512
       Maximum GTO radius used for PAW projector construction:            24.566

     GAPW Soft Basis Set                                            cc-pVTZ_soft

       Number of orbital shell sets:                                           4
       Number of orbital shells:                                              10
       Number of primitive Cartesian functions:                               12
       Number of Cartesian basis functions:                                   35
       Number of spherical basis functions:                                   30
       Norm type:                                                              2

       Normalised Cartesian orbitals:

                        Set   Shell   Orbital            Exponent    Coefficient

                          1       1    1s                2.916000       0.679734
                                                         1.130000       0.207996
                                                         0.257700       0.004690
                                                         0.110100      -0.000991
                                                         0.044090       0.000130

                          1       2    2s                2.916000       0.000000
                                                         1.130000       0.000000
                                                         0.257700       0.257778
                                                         0.110100       0.000000
                                                         0.044090       0.000000

                          1       3    3s                2.916000      -0.182187
                                                         1.130000      -0.106161
                                                         0.257700       0.058780
                                                         0.110100       0.078661
                                                         0.044090       0.021798

                          1       4    4s                2.916000       0.000000
                                                         1.130000       0.000000
                                                         0.257700       0.000000
                                                         0.110100       0.000000
                                                         0.044090       0.068575

                          2       1    1px               1.577000       0.000000
                                                         0.435200       0.000000
                                                         0.143800       0.126223
                                                         0.049940       0.000000
                          2       1    1py               1.577000       0.000000
                                                         0.435200       0.000000
                                                         0.143800       0.126223
                                                         0.049940       0.000000
                          2       1    1pz               1.577000       0.000000
                                                         0.435200       0.000000
                                                         0.143800       0.126223
                                                         0.049940       0.000000

                          2       2    2px               1.577000       0.158330
                                                         0.435200       0.125045
                                                         0.143800       0.066103
                                                         0.049940       0.011893
                          2       2    2py               1.577000       0.158330
                                                         0.435200       0.125045
                                                         0.143800       0.066103
                                                         0.049940       0.011893
                          2       2    2pz               1.577000       0.158330
                                                         0.435200       0.125045
                                                         0.143800       0.066103
                                                         0.049940       0.011893

                          2       3    3px               1.577000       0.000000
                                                         0.435200       0.000000
                                                         0.143800       0.000000
                                                         0.049940       0.033651
                          2       3    3py               1.577000       0.000000
                                                         0.435200       0.000000
                                                         0.143800       0.000000
                                                         0.049940       0.033651
                          2       3    3pz               1.577000       0.000000
                                                         0.435200       0.000000
                                                         0.143800       0.000000
                                                         0.049940       0.033651

                          3       1    1dx2              0.349300       0.261220
                                                         0.172400       0.000000
                          3       1    1dxy              0.349300       0.452447
                                                         0.172400       0.000000
                          3       1    1dxz              0.349300       0.452447
                                                         0.172400       0.000000
                          3       1    1dy2              0.349300       0.261220
                                                         0.172400       0.000000
                          3       1    1dyz              0.349300       0.452447
                                                         0.172400       0.000000
                          3       1    1dz2              0.349300       0.261220
                                                         0.172400       0.000000

                          3       2    2dx2              0.349300       0.000000
                                                         0.172400       0.075919
                          3       2    2dxy              0.349300       0.000000
                                                         0.172400       0.131495
                          3       2    2dxz              0.349300       0.000000
                                                         0.172400       0.131495
                          3       2    2dy2              0.349300       0.000000
                                                         0.172400       0.075919
                          3       2    2dyz              0.349300       0.000000
                                                         0.172400       0.131495
                          3       2    2dz2              0.349300       0.000000
                                                         0.172400       0.075919

                          4       1    1fx3              0.342300       0.131938
                          4       1    1fx2y             0.342300       0.295022
                          4       1    1fx2z             0.342300       0.295022
                          4       1    1fxy2             0.342300       0.295022
                          4       1    1fxyz             0.342300       0.510994
                          4       1    1fxz2             0.342300       0.295022
                          4       1    1fy3              0.342300       0.131938
                          4       1    1fy2z             0.342300       0.295022
                          4       1    1fyz2             0.342300       0.295022
                          4       1    1fz3              0.342300       0.131938

     AE Potential information for                                            ALL

       Description:                                       All-electron potential
                                          Krack, Parrinello, PCCP 2, 2105 (2000)

       Gaussian exponent of the core charge distribution:               4.733728
       Electronic configuration (s p d ...):                           4   0   0

  2. Atomic kind: F                                     Number of atoms:       2

     Orbital Basis Set                                                   cc-pVTZ

       Number of orbital shell sets:                                           4
       Number of orbital shells:                                              10
       Number of primitive Cartesian functions:                               18
       Number of Cartesian basis functions:                                   35
       Number of spherical basis functions:                                   30
       Norm type:                                                              2

       Normalised Cartesian orbitals:

                        Set   Shell   Orbital            Exponent    Coefficient

                          1       1    1px              43.880000       0.000000
                                                         9.926000       0.000000
                                                         2.930000       0.000000
                                                         0.913200       1.272470
                                                         0.267200       0.000000
                          1       1    1py              43.880000       0.000000
                                                         9.926000       0.000000
                                                         2.930000       0.000000
                                                         0.913200       1.272470
                                                         0.267200       0.000000
                          1       1    1pz              43.880000       0.000000
                                                         9.926000       0.000000
                                                         2.930000       0.000000
                                                         0.913200       1.272470
                                                         0.267200       0.000000

                          1       2    2px              43.880000       2.682741
                                                         9.926000       2.623662
                                                         2.930000       1.733564
                                                         0.913200       0.620129
                                                         0.267200       0.091626
                          1       2    2py              43.880000       2.682741
                                                         9.926000       2.623662
                                                         2.930000       1.733564
                                                         0.913200       0.620129
                                                         0.267200       0.091626
                          1       2    2pz              43.880000       2.682741
                                                         9.926000       2.623662
                                                         2.930000       1.733564
                                                         0.913200       0.620129
                                                         0.267200       0.091626

                          1       3    3px              43.880000       0.000000
                                                         9.926000       0.000000
                                                         2.930000       0.000000
                                                         0.913200       0.000000
                                                         0.267200       0.273833
                          1       3    3py              43.880000       0.000000
                                                         9.926000       0.000000
                                                         2.930000       0.000000
                                                         0.913200       0.000000
                                                         0.267200       0.273833
                          1       3    3pz              43.880000       0.000000
                                                         9.926000       0.000000
                                                         2.930000       0.000000
                                                         0.913200       0.000000
                                                         0.267200       0.273833

                          2       1    1s            19500.000000       0.596272
                                                      2923.000000       1.111476
                                                       664.500000       1.884225
                                                       187.500000       2.853273
                                                        60.620000       3.568027
                                                        21.420000       3.071739
                                                         7.950000       1.180889
                                                         2.257000       0.056738
                                                         0.881500      -0.005117
                                                         0.304100       0.000696

                          2       2    2s            19500.000000       0.000000
                                                      2923.000000       0.000000
                                                       664.500000       0.000000
                                                       187.500000       0.000000
                                                        60.620000       0.000000
                                                        21.420000       0.000000
                                                         7.950000       0.000000
                                                         2.257000       1.312377
                                                         0.881500       0.000000
                                                         0.304100       0.000000

                          2       3    3s            19500.000000      -0.137601
                                                      2923.000000      -0.258390
                                                       664.500000      -0.439994
                                                       187.500000      -0.689248
                                                        60.620000      -0.923674
                                                        21.420000      -0.993536
                                                         7.950000      -0.596518
                                                         2.257000       0.225237
                                                         0.881500       0.392295
                                                         0.304100       0.107845

                          2       4    4s            19500.000000       0.000000
                                                      2923.000000       0.000000
                                                       664.500000       0.000000
                                                       187.500000       0.000000
                                                        60.620000       0.000000
                                                        21.420000       0.000000
                                                         7.950000       0.000000
                                                         2.257000       0.000000
                                                         0.881500       0.000000
                                                         0.304100       0.291859

                          3       1    1dx2              3.107000      11.967589
                                                         0.855000       0.000000
                          3       1    1dxy              3.107000      20.728471
                                                         0.855000       0.000000
                          3       1    1dxz              3.107000      20.728471
                                                         0.855000       0.000000
                          3       1    1dy2              3.107000      11.967589
                                                         0.855000       0.000000
                          3       1    1dyz              3.107000      20.728471
                                                         0.855000       0.000000
                          3       1    1dz2              3.107000      11.967589
                                                         0.855000       0.000000

                          3       2    2dx2              3.107000       0.000000
                                                         0.855000       1.251267
                          3       2    2dxy              3.107000       0.000000
                                                         0.855000       2.167259
                          3       2    2dxz              3.107000       0.000000
                                                         0.855000       2.167259
                          3       2    2dy2              3.107000       0.000000
                                                         0.855000       1.251267
                          3       2    2dyz              3.107000       0.000000
                                                         0.855000       2.167259
                          3       2    2dz2              3.107000       0.000000
                                                         0.855000       1.251267

                          4       1    1fx3              1.917000       6.365818
                          4       1    1fx2y             1.917000      14.234401
                          4       1    1fx2z             1.917000      14.234401
                          4       1    1fxy2             1.917000      14.234401
                          4       1    1fxyz             1.917000      24.654706
                          4       1    1fxz2             1.917000      14.234401
                          4       1    1fy3              1.917000       6.365818
                          4       1    1fy2z             1.917000      14.234401
                          4       1    1fyz2             1.917000      14.234401
                          4       1    1fz3              1.917000       6.365818

     RI Auxiliary Basis Set                                        cc-pVTZ-RIFIT

       Number of orbital shell sets:                                          23
       Number of orbital shells:                                              23
       Number of primitive Cartesian functions:                               23
       Number of Cartesian basis functions:                                  101
       Number of spherical basis functions:                                   81
       Norm type:                                                              2

       Normalised Cartesian orbitals:

                        Set   Shell   Orbital            Exponent    Coefficient

                          1       1    1s                0.452493       0.393205

                          2       1    1dx2              0.626987       0.727130
                          2       1    1dxy              0.626987       1.259427
                          2       1    1dxz              0.626987       1.259427
                          2       1    1dy2              0.626987       0.727130
                          2       1    1dyz              0.626987       1.259427
                          2       1    1dz2              0.626987       0.727130

                          3       1    1px               0.648796       0.829995
                          3       1    1py               0.648796       0.829995
                          3       1    1pz               0.648796       0.829995

                          4       1    1s                1.055048       0.741932

                          5       1    1px               1.260979       1.904692
                          5       1    1py               1.260979       1.904692
                          5       1    1pz               1.260979       1.904692

                          6       1    1fx3              1.439373       3.340752
                          6       1    1fx2y             1.439373       7.470148
                          6       1    1fx2z             1.439373       7.470148
                          6       1    1fxy2             1.439373       7.470148
                          6       1    1fxyz             1.439373      12.938676
                          6       1    1fxz2             1.439373       7.470148
                          6       1    1fy3              1.439373       3.340752
                          6       1    1fy2z             1.439373       7.470148
                          6       1    1fyz2             1.439373       7.470148
                          6       1    1fz3              1.439373       3.340752

                          7       1    1dx2              1.523280       3.437750
                          7       1    1dxy              1.523280       5.954357
                          7       1    1dxz              1.523280       5.954357
                          7       1    1dy2              1.523280       3.437750
                          7       1    1dyz              1.523280       5.954357
                          7       1    1dz2              1.523280       3.437750

                          8       1    1s                1.762717       1.090303

                          9       1    1px               2.636687       4.789204
                          9       1    1py               2.636687       4.789204
                          9       1    1pz               2.636687       4.789204

                         10       1    1fx3              2.969813      17.044917
                         10       1    1fx2y             2.969813      38.113592
                         10       1    1fx2z             2.969813      38.113592
                         10       1    1fxy2             2.969813      38.113592
                         10       1    1fxyz             2.969813      66.014679
                         10       1    1fxz2             2.969813      38.113592
                         10       1    1fy3              2.969813      17.044917
                         10       1    1fy2z             2.969813      38.113592
                         10       1    1fyz2             2.969813      38.113592
                         10       1    1fz3              2.969813      17.044917

                         11       1    1gx4              3.115637      25.333150
                         11       1    1gx3y             3.115637      67.025215
                         11       1    1gx3z             3.115637      67.025215
                         11       1    1gx2y2            3.115637      86.529180
                         11       1    1gx2yz            3.115637     149.872936
                         11       1    1gx2z2            3.115637      86.529180
                         11       1    1gxy3             3.115637      67.025215
                         11       1    1gxy2z            3.115637     149.872936
                         11       1    1gxyz2            3.115637     149.872936
                         11       1    1gxz3             3.115637      67.025215
                         11       1    1gy4              3.115637      25.333150
                         11       1    1gy3z             3.115637      67.025215
                         11       1    1gy2z2            3.115637      86.529180
                         11       1    1gyz3             3.115637      67.025215
                         11       1    1gz4              3.115637      25.333150

                         12       1    1s                3.665445       1.888014

                         13       1    1dx2              3.818510      17.168160
                         13       1    1dxy              3.818510      29.736125
                         13       1    1dxz              3.818510      29.736125
                         13       1    1dy2              3.818510      17.168160
                         13       1    1dyz              3.818510      29.736125
                         13       1    1dz2              3.818510      17.168160

                         14       1    1px               4.756681      10.013137
                         14       1    1py               4.756681      10.013137
                         14       1    1pz               4.756681      10.013137

                         15       1    1fx3              6.194743      89.126498
                         15       1    1fx2y             6.194743     199.292907
                         15       1    1fx2z             6.194743     199.292907
                         15       1    1fxy2             6.194743     199.292907
                         15       1    1fxyz             6.194743     345.185441
                         15       1    1fxz2             6.194743     199.292907
                         15       1    1fy3              6.194743      89.126498
                         15       1    1fy2z             6.194743     199.292907
                         15       1    1fyz2             6.194743     199.292907
                         15       1    1fz3              6.194743      89.126498

                         16       1    1dx2              6.421170      42.631854
                         16       1    1dxy              6.421170      73.840537
                         16       1    1dxz              6.421170      73.840537
                         16       1    1dy2              6.421170      42.631854
                         16       1    1dyz              6.421170      73.840537
                         16       1    1dz2              6.421170      42.631854

                         17       1    1s               11.543896       4.463488

                         18       1    1px              13.925625      38.344976
                         18       1    1py              13.925625      38.344976
                         18       1    1pz              13.925625      38.344976

                         19       1    1dx2             18.713622     277.131374
                         19       1    1dxy             18.713622     480.005621
                         19       1    1dxz             18.713622     480.005621
                         19       1    1dy2             18.713622     277.131374
                         19       1    1dyz             18.713622     480.005621
                         19       1    1dz2             18.713622     277.131374

                         20       1    1s               32.901243       9.790826

                         21       1    1px              51.725836     197.730876
                         21       1    1py              51.725836     197.730876
                         21       1    1pz              51.725836     197.730876

                         22       1    1s               94.574981      21.614355

                         23       1    1s              422.926164      66.467372

       Atomic covalent radius [Angstrom]:                                  0.720

       Atomic van der Waals radius [Angstrom]:                             1.470

     The atoms of this atomic kind are PAW atoms (GAPW):
       Hard Gaussian function radius:                                      1.512
       Rho0 radius:                                                        1.512
       Maximum GTO radius used for PAW projector construction:            24.566

     GAPW Soft Basis Set                                            cc-pVTZ_soft

       Number of orbital shell sets:                                           4
       Number of orbital shells:                                              10
       Number of primitive Cartesian functions:                                9
       Number of Cartesian basis functions:                                   35
       Number of spherical basis functions:                                   30
       Norm type:                                                              2

       Normalised Cartesian orbitals:

                        Set   Shell   Orbital            Exponent    Coefficient

                          1       1    1px               2.930000       0.000000
                                                         0.913200       1.272470
                                                         0.267200       0.000000
                          1       1    1py               2.930000       0.000000
                                                         0.913200       1.272470
                                                         0.267200       0.000000
                          1       1    1pz               2.930000       0.000000
                                                         0.913200       1.272470
                                                         0.267200       0.000000

                          1       2    2px               2.930000       1.733564
                                                         0.913200       0.620129
                                                         0.267200       0.091626
                          1       2    2py               2.930000       1.733564
                                                         0.913200       0.620129
                                                         0.267200       0.091626
                          1       2    2pz               2.930000       1.733564
                                                         0.913200       0.620129
                                                         0.267200       0.091626

                          1       3    3px               2.930000       0.000000
                                                         0.913200       0.000000
                                                         0.267200       0.273833
                          1       3    3py               2.930000       0.000000
                                                         0.913200       0.000000
                                                         0.267200       0.273833
                          1       3    3pz               2.930000       0.000000
                                                         0.913200       0.000000
                                                         0.267200       0.273833

                          2       1    1s                2.257000       0.056738
                                                         0.881500      -0.005117
                                                         0.304100       0.000696

                          2       2    2s                2.257000       1.312377
                                                         0.881500       0.000000
                                                         0.304100       0.000000

                          2       3    3s                2.257000       0.225237
                                                         0.881500       0.392295
                                                         0.304100       0.107845

                          2       4    4s                2.257000       0.000000
                                                         0.881500       0.000000
                                                         0.304100       0.291859

                          3       1    1dx2              3.107000      11.967589
                                                         0.855000       0.000000
                          3       1    1dxy              3.107000      20.728471
                                                         0.855000       0.000000
                          3       1    1dxz              3.107000      20.728471
                                                         0.855000       0.000000
                          3       1    1dy2              3.107000      11.967589
                                                         0.855000       0.000000
                          3       1    1dyz              3.107000      20.728471
                                                         0.855000       0.000000
                          3       1    1dz2              3.107000      11.967589
                                                         0.855000       0.000000

                          3       2    2dx2              3.107000       0.000000
                                                         0.855000       1.251267
                          3       2    2dxy              3.107000       0.000000
                                                         0.855000       2.167259
                          3       2    2dxz              3.107000       0.000000
                                                         0.855000       2.167259
                          3       2    2dy2              3.107000       0.000000
                                                         0.855000       1.251267
                          3       2    2dyz              3.107000       0.000000
                                                         0.855000       2.167259
                          3       2    2dz2              3.107000       0.000000
                                                         0.855000       1.251267

                          4       1    1fx3              1.917000       6.365818
                          4       1    1fx2y             1.917000      14.234401
                          4       1    1fx2z             1.917000      14.234401
                          4       1    1fxy2             1.917000      14.234401
                          4       1    1fxyz             1.917000      24.654706
                          4       1    1fxz2             1.917000      14.234401
                          4       1    1fy3              1.917000       6.365818
                          4       1    1fy2z             1.917000      14.234401
                          4       1    1fyz2             1.917000      14.234401
                          4       1    1fz3              1.917000       6.365818

     AE Potential information for                                            ALL

       Description:                                       All-electron potential
                                          Krack, Parrinello, PCCP 2, 2105 (2000)

       Gaussian exponent of the core charge distribution:              10.470541
       Electronic configuration (s p d ...):                           4   5   0


 MOLECULE KIND INFORMATION


 All atoms are their own molecule, skipping detailed information


 TOTAL NUMBERS AND MAXIMUM NUMBERS

  Total number of            - Atomic kinds:                                   2
                             - Atoms:                                          3
                             - Shell sets:                                    12
                             - Shells:                                        30
                             - Primitive Cartesian functions:                 55
                             - Cartesian basis functions:                    105
                             - Spherical basis functions:                     90

  Maximum angular momentum of the orbital basis functions:                     3


 MODULE QUICKSTEP: ATOMIC COORDINATES IN ANGSTROM

   Atom Kind Element         X             Y             Z       Z(eff)     Mass
      1    1 BE    4     15.000000     15.000000     15.000000   4.0000   9.0122
      2    2 F     9     16.379590     15.000000     15.000000   9.0000  18.9984
      3    2 F     9     13.620410     15.000000     15.000000   9.0000  18.9984



 SCF PARAMETERS         Density guess:                                   RESTART
                        --------------------------------------------------------
                        max_scf:                                             500
                        max_scf_history:                                       0
                        max_diis:                                              4
                        --------------------------------------------------------
                        eps_scf:                                        1.00E-06
                        eps_scf_history:                                0.00E+00
                        eps_diis:                                       1.00E-01
                        eps_eigval:                                     1.00E-05
                        --------------------------------------------------------
                        level_shift [a.u.]:                             0.000000
                        --------------------------------------------------------
                        Outer loop SCF in use 
                        No variables optimised in outer loop
                        eps_scf                                         1.00E-06
                        max_scf                                               20
                        No outer loop optimization
                        step_size                                       5.00E-01

 PW_GRID| Information for grid number                                          1
 PW_GRID| Grid distributed over                                    96 processors
 PW_GRID| Real space group dimensions                                    96    1
 PW_GRID| the grid is blocked:                                                NO
 PW_GRID| Cutoff [a.u.]                                                    250.0
 PW_GRID| spherical cutoff:                                                   NO
 PW_GRID|   Bounds   1           -202     202                Points:         405
 PW_GRID|   Bounds   2           -202     202                Points:         405
 PW_GRID|   Bounds   3           -202     202                Points:         405
 PW_GRID| Volume element (a.u.^3)  0.2743E-02     Volume (a.u.^3)    182205.0337
 PW_GRID| Grid span                                                    FULLSPACE
 PW_GRID|   Distribution                         Average         Max         Min
 PW_GRID|   G-Vectors                           691980.5      692145      691740
 PW_GRID|   G-Rays                                1708.6        1709        1708
 PW_GRID|   Real Space Points                   691980.5      820125      656100

 PW_GRID| Information for grid number                                          2
 PW_GRID| Number of the reference grid                                         1
 PW_GRID| Grid distributed over                                    96 processors
 PW_GRID| Real space group dimensions                                    96    1
 PW_GRID| the grid is blocked:                                                NO
 PW_GRID| Cutoff [a.u.]                                                     83.3
 PW_GRID| spherical cutoff:                                                   NO
 PW_GRID|   Bounds   1           -120     119                Points:         240
 PW_GRID|   Bounds   2           -120     119                Points:         240
 PW_GRID|   Bounds   3           -120     119                Points:         240
 PW_GRID| Volume element (a.u.^3)  0.1318E-01     Volume (a.u.^3)    182205.0337
 PW_GRID| Grid span                                                    FULLSPACE
 PW_GRID|   Distribution                         Average         Max         Min
 PW_GRID|   G-Vectors                           144000.0      144480      143760
 PW_GRID|   G-Rays                                 600.0         602         599
 PW_GRID|   Real Space Points                   144000.0      172800      115200

 PW_GRID| Information for grid number                                          3
 PW_GRID| Number of the reference grid                                         1
 PW_GRID| Grid distributed over                                    96 processors
 PW_GRID| Real space group dimensions                                    96    1
 PW_GRID| the grid is blocked:                                                NO
 PW_GRID| Cutoff [a.u.]                                                     27.8
 PW_GRID| spherical cutoff:                                                   NO
 PW_GRID|   Bounds   1            -67      67                Points:         135
 PW_GRID|   Bounds   2            -67      67                Points:         135
 PW_GRID|   Bounds   3            -67      67                Points:         135
 PW_GRID| Volume element (a.u.^3)  0.7406E-01     Volume (a.u.^3)    182205.0337
 PW_GRID| Grid span                                                    FULLSPACE
 PW_GRID|   Distribution                         Average         Max         Min
 PW_GRID|   G-Vectors                            25628.9       25785       25515
 PW_GRID|   G-Rays                                 189.8         191         189
 PW_GRID|   Real Space Points                    25628.9       36450       18225

 PW_GRID| Information for grid number                                          4
 PW_GRID| Number of the reference grid                                         1
 PW_GRID| Grid distributed over                                    96 processors
 PW_GRID| Real space group dimensions                                     8   12
 PW_GRID| the grid is blocked:                                                NO
 PW_GRID| Cutoff [a.u.]                                                      9.3
 PW_GRID| spherical cutoff:                                                   NO
 PW_GRID|   Bounds   1            -40      39                Points:          80
 PW_GRID|   Bounds   2            -40      39                Points:          80
 PW_GRID|   Bounds   3            -40      39                Points:          80
 PW_GRID| Volume element (a.u.^3)  0.3559         Volume (a.u.^3)    182205.0337
 PW_GRID| Grid span                                                    FULLSPACE
 PW_GRID|   Distribution                         Average         Max         Min
 PW_GRID|   G-Vectors                             5333.3        5520        5200
 PW_GRID|   G-Rays                                  66.7          69          65
 PW_GRID|   Real Space Points                     5333.3        5600        4800

 POISSON| Solver                                                         WAVELET
 POISSON| Wavelet| Scaling function                                           40
 POISSON| Periodicity                                                       NONE

 RS_GRID| Information for grid number                                          1
 RS_GRID|   Bounds   1           -202     202                Points:         405
 RS_GRID|   Bounds   2           -202     202                Points:         405
 RS_GRID|   Bounds   3           -202     202                Points:         405
 RS_GRID| Real space distribution over                                  4 groups
 RS_GRID| Real space distribution along direction                              1
 RS_GRID| Border size                                                         35
 RS_GRID| Real space distribution over                                  4 groups
 RS_GRID| Real space distribution along direction                              2
 RS_GRID| Border size                                                         35
 RS_GRID| Real space distribution over                                  6 groups
 RS_GRID| Real space distribution along direction                              3
 RS_GRID| Border size                                                         35
 RS_GRID|   Distribution                         Average         Max         Min
 RS_GRID|   Planes                                 171.2         172         171
 RS_GRID|   Distribution                         Average         Max         Min
 RS_GRID|   Planes                                 171.2         172         171
[...]
 fft3d_ps                          5123 12.6   55.833   70.458  127.635  132.608
 ps_wavelet_solve                   313  9.8   70.311   80.498   90.258   91.445
 qs_rho_update_rho_low              315  6.5    0.003    0.004   77.005   77.009
 calculate_rho_elec                 315  7.5    1.532    1.818   76.725   76.729
 tddfpt_apply_coulomb               120  9.0    0.003    0.003   69.175   69.454
 mp_alltoall_d54                    313 10.8   11.456   69.344   11.456   69.344
 xc_pw_derive                      1497 11.0    0.017    0.021   67.165   67.749
 mp_alltoall_z22v                  5123 14.6   60.683   65.297   60.683   65.297
 density_rs2pw                      315  8.5    0.019    0.022   51.525   53.302
 qs_vxc_create                      193  8.0    0.002    0.002   44.190   44.191
 tddfpt_apply_xc_analytic           120  9.0    0.171    0.225   40.242   40.812
 yz_to_x                           2313 13.5    3.792    4.543   35.512   39.180
 x_to_yz                           2310 13.8    6.750    7.784   35.675   36.867
 xc_pw_divergence                   185 10.6    0.008    0.009   34.514   35.131
 transfer_rs2pw                    1575  9.7    0.043    0.060   30.837   32.169
 xc_rho_set_and_dset_create         194 10.0    0.467    0.601   27.720   31.550
 integrate_v_rspace                 185  9.0    0.004    0.005   28.356   28.535
 prepare_gapw_den                   314  8.4    0.005    0.006   28.075   28.464
 mp_alltoall_d11v                 12760 11.8   18.600   26.584   18.600   26.584
 put_rho0_on_grid                   314  9.4    1.549    1.866   25.795   26.184
 potential_pw2rs                    185 10.0    0.064    0.070   25.761   25.958
 transfer_pw2rs                    1054 10.6    0.017    0.020   25.396   25.923
 grid_collocate_task_list           315  8.5   22.424   24.756   22.424   24.756
 integrate_four_center              433  9.6    8.564   19.020   24.543   24.719
 xc_calc_2nd_deriv_analytical       360 10.1    1.431    1.514   23.958   24.025
 xc_vxc_pw_create                    65  9.0    0.416    0.489   22.869   22.871
 mp_waitany                       48870 12.1   19.689   21.763   19.689   21.763
 xc_exc_calc                        128  9.0    0.621    0.737   21.319   21.319
 transfer_rs2pw_250                 630 10.9    8.081    8.470   18.558   19.881
 mp_sync                           2413 11.4   11.309   19.873   11.309   19.873
 transfer_pw2rs_250                 499 11.2    6.131    6.638   16.620   17.147
 integrate_vhg0_rspace              313  8.8    0.145    0.183   14.997   15.149
 mp_alltoall_d45                    314 10.8    7.841   13.776    7.841   13.776
 tddfpt_apply_hfx                     6  8.0    0.002    0.003   13.181   13.181
 hfx_ks_matrix                      193  8.0    0.007    0.007   12.832   12.949
 tddft_hfx_matrix                   240  9.0    0.006    0.007   11.726   11.794
 sum_up_and_integrate                65  8.0    0.001    0.001    9.615    9.645
 mp_sum_d                          6307  9.7    7.361    9.283    7.361    9.283
 pw_scatter_p                      2495 12.8    8.821    9.053    8.821    9.053
 pw_gather_p                       2628 12.4    7.232    7.995    7.232    7.995
 pw_derive                         2436 11.5    7.192    7.659    7.192    7.659
 cp2k_distribution_to_z_slices      313  9.8    3.007    3.311    7.172    7.606
 transfer_rs2pw_30                  315 10.5    2.969    3.110    6.935    7.088
 mp_waitall_1                    444382 13.5    4.869    6.831    4.869    6.831
 fft_wrap_pw1pw2_90                 500 11.1    0.171    0.238    4.332    5.548
 init_scf_loop                        1  4.0    0.000    0.000    5.545    5.545
 transfer_pw2rs_30                  185 12.0    3.151    3.601    5.202    5.336
 dbcsr_multiply_generic            3336  9.9    0.134    0.144    5.119    5.158
 pw_copy                           3820 10.8    4.823    5.126    4.823    5.126
 rs_grid_zero                      1312 11.3    4.771    5.057    4.771    5.057
 xc_functional_eval                 820 10.9    0.002    0.005    1.497    5.025
 pbe_lda_eval                       820 11.9    1.495    5.022    1.495    5.022
 mp_sendrecv_dv                   59850 11.5    4.843    5.010    4.843    5.010
 qs_scf_new_mos                     193  5.0    0.001    0.001    4.983    4.991
 qs_scf_loop_do_ot                  193  6.0    0.001    0.001    4.982    4.990
 pw_poisson_set                     314  9.8    0.011    0.014    4.838    4.912
 ot_scf_mini                        193  7.0    0.003    0.003    4.659    4.666
 transfer_rs2pw_90                  315 10.5    1.129    1.220    3.873    4.136
 pw_copy_to_array                  2628 12.4    2.754    3.421    2.754    3.421
 cp_dbcsr_sm_fm_multiply            769  8.5    0.014    0.016    3.162    3.238
 integrate_four_center_main         433 10.6    0.082    1.772    0.229    3.039
 pw_integral_ab_c1d_c1d_gs          313  9.8    2.290    2.314    2.633    3.029
 transfer_pw2rs_90                  185 12.0    0.739    0.846    2.652    2.932
 integrate_four_center_bin        34710 11.6    0.147    2.868    0.147    2.868
 multiply_cannon                   3336 10.9    0.302    0.313    2.674    2.766
 pw_axpy                           2618 10.0    2.435    2.654    2.435    2.654
 rs_gather_matrices                 185 10.0    0.002    0.011    2.452    2.600
 grid_integrate_task_list           185 10.0    0.137    2.503    0.137    2.503
 gaVxcgb_GC                         185  9.6    0.069    2.320    0.069    2.320
 calculate_xc_2nd_deriv_atom        120  9.0    0.035    0.677    0.096    2.319
 qs_ot_get_p                        194  8.0    0.001    0.001    2.265    2.269
 dbcsr_complete_redistribute       2813 10.7    0.103    0.147    2.168    2.240
 pw_copy_from_array                2495 12.8    1.755    2.193    1.755    2.193
 calculate_rho_atom                 628  9.4    1.293    2.169    1.293    2.169
 multiply_cannon_loop              3336 11.9    0.500    0.521    1.959    2.053
 mp_isend_dv                     186571 13.5    1.254    2.014    1.254    2.014
 pw_zero                           2596 10.5    1.827    2.010    1.827    2.010
 mp_sum_dm                         2857  8.9    1.588    1.943    1.588    1.943
 mp_isendrecv_dv                 117420 12.0    1.079    1.905    1.079    1.905
 qs_ot_p2m_diag                     193  9.0    0.004    0.007    1.724    1.731
 mp_isend_dm3                      9774 12.1    0.840    1.716    0.840    1.716
 calc_screening_functions             1 10.0    0.979    1.025    1.596    1.649
 mp_irecv_dm3                      9774 12.1    0.868    1.628    0.868    1.628
 copy_dbcsr_to_fm                  1000  9.7    0.013    0.014    1.602    1.615
 make_m2s                          6672 10.9    0.107    0.115    1.473    1.556
 ot_mini                            193  8.0    0.001    0.001    1.476    1.487
 calculate_vxc_atom                 193  8.0    0.069    0.559    1.479    1.480
 transfer_rs2pw_10                  315 10.5    0.551    0.615    1.427    1.468
 copy_fm_to_dbcsr                  1811  9.8    0.008    0.009    1.297    1.370
 qs_ot_get_derivative                65  9.0    0.000    0.001    1.356    1.358
 create_qs_kind_set                   1  2.0    0.000    0.000    1.211    1.211
 read_qs_kind                         2  3.0    0.653    0.672    1.211    1.211
 mp_max_i                           767  5.4    0.896    1.192    0.896    1.192
 powell_optimize                 460572 11.0    1.134    1.176    1.134    1.176
 mp_sum_dv                        16221 10.7    1.099    1.160    1.099    1.160
 integrate_four_center_getP         433 10.6    0.068    0.077    1.112    1.135
 integrate_four_center_dist_KS      433 10.6    0.069    0.080    1.128    1.132
 make_images                       6672 11.9    0.261    0.267    1.079    1.115
 cp_dbcsr_syevd                     193 10.0    0.011    0.011    1.106    1.108
 cp_dbcsr_sm_fm_multiply_core       769  9.5    0.002    0.002    1.068    1.096
 qs_ot_get_derivative_diag           64 10.0    0.001    0.002    1.040    1.042
 fft_wrap_pw1pw2_30                 500 11.1    0.032    0.038    0.920    1.040
 transfer_pw2rs_10                  185 12.0    0.340    0.388    0.906    1.023
 cp_fm_syevd                        241 10.3    0.001    0.002    0.995    0.999
 offload_free_buffer                321  9.6    0.779    0.934    0.779    0.934
 Vh_1c_gg_integrals                 313  8.8    0.029    0.282    0.750    0.923
 mp_alltoall_i11v                  9632 11.8    0.913    0.914    0.913    0.914
 scale_and_distribute               626 10.8    0.786    0.884    0.786    0.884
 pw_poisson_rebuild                 313  9.8    0.000    0.000    0.814    0.828
 ps_wavelet_create                    1 10.0    0.000    0.000    0.814    0.828
 RS_z_slice_distribution              1 11.0    0.679    0.765    0.814    0.828
 cp_fm_redistribute_end             241 11.3    0.451    0.783    0.458    0.790
 calc_pair_dist_radii                 1 10.0    0.246    0.251    0.763    0.784
 tddfpt_orthonormalize_psi1_psi       7  6.9    0.011    0.012    0.707    0.707
 cp_fm_syevd_base                   241 11.3    0.327    0.658    0.327    0.658
 tddfpt_print_nto_analysis            1  6.0    0.002    0.003    0.637    0.638
 dbcsr_desymmetrize_deep           1001 10.7    0.018    0.020    0.616    0.630
 qs_ot_get_orbitals                 193  8.0    0.001    0.001    0.614    0.620
 parser_read_line                139795  4.0    0.049    0.056    0.558    0.563
 cp_dbcsr_plus_fm_fm_t              121  9.0    0.002    0.002    0.538    0.543
 mp_sum_l                         15049 10.7    0.490    0.528    0.490    0.528
 parser_read_line_low               152  5.0    0.028    0.226    0.509    0.517
 tddfpt_apply_energy_diff             6  8.0    0.001    0.001    0.513    0.513
 prepare_dr1dr                      360 11.1    0.428    0.497    0.428    0.497
 broadcast_input_information        152  6.0    0.110    0.121    0.482    0.491
 multiply_cannon_metrocomm4       73392 12.9    0.217    0.233    0.421    0.461
 make_images_sizes                 6672 12.9    0.007    0.008    0.407    0.427
 mp_alltoall_i44                   6672 13.9    0.400    0.420    0.400    0.420
 multiply_cannon_metrocomm2       70056 12.9    0.208    0.221    0.382    0.418
 tddfpt_compute_residual_vects        5  7.0    0.001    0.001    0.407    0.407
 mp_alltoall_i22                   3878 11.8    0.315    0.397    0.315    0.397
 fft_wrap_pw1pw2_10                 500 11.1    0.008    0.008    0.366    0.387
 multiply_cannon_metrocomm3       80064 12.9    0.126    0.131    0.327    0.385
 hybrid_alltoall_any               7673 13.6    0.059    0.070    0.340    0.372
 parallel_gemm_fm                  1029  8.3    0.001    0.001    0.353    0.366
 parallel_gemm_fm_gemm             1029  9.3    0.001    0.001    0.352    0.365
 cp_fm_gemm                        1029 10.3    0.351    0.364    0.351    0.364
 cp_fm_geeig                         20  7.0    0.001    0.001    0.344    0.345
 mp_rank_compare                   5123 13.6    0.307    0.334    0.307    0.334
 tddfpt_construct_ground_state_       1  6.0    0.000    0.000    0.333    0.334
 init_scf_run                         1  3.0    0.000    0.000    0.330    0.330
 scf_env_initial_rho_setup            1  4.0    0.000    0.000    0.330    0.330
 calculate_dm_sparse                194  7.0    0.001    0.001    0.325    0.328
 update_ks_atom                     313  8.4    0.018    0.055    0.185    0.306
 mp_bcast_dm                       2074  9.6    0.172    0.291    0.172    0.291
 dbcsr_make_images_dense           4608 11.9    0.069    0.071    0.205    0.289
 calculate_rho_atom_coeff           315  7.5    0.024    0.078    0.277    0.281
 dbcsr_create_new                 69325 12.3    0.194    0.205    0.261    0.273
 multiply_cannon_metrocomm1       80064 12.9    0.088    0.093    0.214    0.270
 qs_init_subsys                       1  2.0    0.004    0.004    0.264    0.264
 dbcsr_finalize                    8600 11.3    0.040    0.055    0.193    0.255
 qs_env_setup                         1  3.0    0.000    0.000    0.251    0.252
 qs_env_rebuild_pw_env                2  3.5    0.000    0.000    0.249    0.251
 pw_env_rebuild                       1  5.0    0.001    0.001    0.249    0.250
 mp_bcast_i_src                     608  7.0    0.218    0.244    0.218    0.244
 mp_allgather_i34                  3336 11.9    0.215    0.239    0.215    0.239
 mp_alltoall_z11v                   500 14.1    0.213    0.235    0.213    0.235
 create_kernel_env                    1  6.0    0.000    0.000    0.203    0.231
 xc_prep_2nd_deriv                    1  7.0    0.000    0.000    0.203    0.231
 pw_grid_setup                        4  6.0    0.000    0.000    0.228    0.229
 pw_grid_setup_internal               4  7.0    0.005    0.007    0.228    0.229
 pw_scale                           500  9.5    0.181    0.228    0.181    0.228
 arnoldi_extremal                   194  9.0    0.003    0.003    0.224    0.228
 arnoldi_normal_ev                  195 10.0    0.003    0.004    0.224    0.228
 make_images_data                  6672 12.9    0.064    0.086    0.140    0.217
 cp_fm_redistribute_start           241 11.3    0.166    0.170    0.208    0.214
 dbcsr_make_dense_low             13388 12.8    0.066    0.068    0.100    0.207
 mp_cart_sub                       2003 11.7    0.187    0.188    0.187    0.188
 rs_grid_create                     319  9.7    0.002    0.002    0.024    0.176
 offload_create_buffer              321 10.7    0.022    0.174    0.022    0.174
 dbcsr_special_finalize           16680 12.9    0.043    0.045    0.135    0.170
 mp_bcast_am_src                    152  7.0    0.133    0.149    0.152    0.169
 mp_irecv_dv                     184653 13.5    0.138    0.166    0.138    0.166
 cp_fm_trace_a1b1t1_aa             7470  8.0    0.035    0.037    0.162    0.164
 build_subspace                     195 11.0    0.007    0.008    0.160    0.162
 multiply_cannon_multrec          80064 12.9    0.101    0.145    0.114    0.159
 pw_grid_sort                         4  8.0    0.107    0.109    0.156    0.158
 qs_energies_init_hamiltonians        1  3.0    0.000    0.000    0.153    0.153
 mp_cart_create                    1631 10.8    0.138    0.145    0.140    0.147
 build_core_hamiltonian_matrix        1  4.0    0.000    0.000    0.147    0.147
 overlap_condnum                      1  5.0    0.000    0.000    0.145    0.145
 dbcsr_merge_all                   7494 12.3    0.086    0.109    0.109    0.144
 xz_to_yz                           315 12.5    0.011    0.013    0.131    0.140
 mp_isend_iv                     157562 13.9    0.119    0.131    0.119    0.131
 dbcsr_iterator_start             57460 12.3    0.058    0.108    0.072    0.130
 dbcsr_matrix_vector_mult          1587 12.0    0.015    0.015    0.078    0.126
 yz_to_xz                           185 14.0    0.010    0.011    0.104    0.121
 dbcsr_destroy                    67168 11.5    0.082    0.085    0.111    0.118
 arnoldi_conjugate_gradient           7  6.0    0.003    0.004    0.114    0.114
 ot_new_cg_direction                 65  9.0    0.001    0.001    0.112    0.113
 xc_2nd_deriv_of_r                  240 10.0    0.001    0.020    0.003    0.111
 vxc_of_r_new                       386  9.0    0.000    0.009    0.003    0.111
 rs_scatter_matrices                315  8.5    0.002    0.006    0.104    0.108
 make_dense_data                  13388 13.8    0.005    0.046    0.006    0.108
 apply_preconditioner_dbcsr          66 10.0    0.000    0.000    0.101    0.104
 dbcsr_sym_matrix_vector_mult       647  8.0    0.010    0.011    0.071    0.103
 apply_single                        66 11.0    0.000    0.000    0.101    0.103
 dbcsr_data_release              315926 13.1    0.081    0.097    0.081    0.097
 dbcsr_data_new                  188858 13.0    0.078    0.096    0.078    0.096
 calculate_rho0_atom                628  9.4    0.087    0.089    0.087    0.089
 integrate_four_center_load         433 10.6    0.001    0.002    0.064    0.085
 hfx_load_balance                     1 11.0    0.000    0.000    0.063    0.084
 dbcsr_iterator_stop              57460 12.3    0.043    0.070    0.053    0.083
 dbcsr_add_d                       1216  8.5    0.002    0.002    0.010    0.080
 setup_buffer_matrices             6672 11.9    0.025    0.026    0.075    0.080
 dbcsr_add_anytype                 1216  9.5    0.002    0.012    0.008    0.079
 mp_irecv_iv                     158332 13.9    0.069    0.078    0.069    0.078
 dbcsr_work_create                25239 12.5    0.045    0.050    0.065    0.078
 tddfpt_orthogonalize_psi1_psi0       7  6.9    0.000    0.000    0.068    0.078
 hfx_load_balance_range               1 12.0    0.000    0.000    0.056    0.077
 scf_post_calculation_gpw             1  3.0    0.000    0.000    0.074    0.074
 write_available_results              1  4.0    0.000    0.000    0.074    0.074
 write_mo_free_results                1  5.0    0.006    0.008    0.074    0.074
 dbcsr_col_vec_to_rep_row          2234 11.8    0.016    0.017    0.038    0.073
 dbcsr_new_transposed              1466 10.8    0.008    0.009    0.068    0.070
 mp_sum_b                          4609 10.9    0.067    0.069    0.067    0.069
 dbcsr_make_dense                  1868 11.1    0.008    0.008    0.039    0.068
 dbcsr_work_destroy_all           25239 13.4    0.042    0.047    0.056    0.064
 dbcsr_merge_single_wm             7340 13.6    0.035    0.042    0.041    0.064
 copy_fm_to_dbcsr_bc               1811 10.8    0.019    0.021    0.056    0.062
 tddfpt_compute_ritz_vects            6  7.0    0.003    0.004    0.059    0.059
 Gram_Schmidt_ortho                1498 11.9    0.002    0.003    0.046    0.057
 prepare_preconditioner               1  5.0    0.000    0.000    0.057    0.057
 make_preconditioner                  1  6.0    0.000    0.000    0.057    0.057
 cp_fm_cholesky_decompose            23  7.9    0.054    0.054    0.054    0.054
 dbcsr_copy                        6999  9.7    0.023    0.024    0.050    0.053
 make_full_single_inverse             1  7.0    0.000    0.000    0.052    0.052
 dbcsr_make_undense                1868 11.1    0.012    0.023    0.023    0.052
 sort_shells                          4  9.0    0.049    0.050    0.049    0.050
 dbcsr_mm_multrec_init             3336 11.9    0.006    0.007    0.045    0.050
 cp_fm_triangular_invert             20  8.0    0.049    0.049    0.049    0.049
 xc_pw_smooth                        65 10.0    0.000    0.000    0.034    0.048
 quick_finalize                   10405 14.0    0.022    0.028    0.037    0.048
 dbcsr_redistribute                  64 12.0    0.002    0.002    0.043    0.044
 dbcsr_mm_csr_init                 3336 12.9    0.031    0.035    0.039    0.044
 mp_cart_rank                    120300 10.3    0.036    0.044    0.036    0.044
 mp_bcast_dv                       2475 12.8    0.013    0.044    0.013    0.044
 -------------------------------------------------------------------------------

 The number of warnings for this run is : 2
 
 -------------------------------------------------------------------------------
  **** **** ******  **  PROGRAM ENDED AT                 2025-04-28 07:42:12.775
 ***** ** ***  *** **   PROGRAM RAN ON                              i03r01c02s12
 **    ****   ******    PROGRAM RAN BY                                   di38fab
 ***** **    ** ** **   PROGRAM PROCESS ID                               2279408
  **** **  *******  **  PROGRAM STOPPED IN /hppfs/scratch/04/di38fab/07_MOL_non_
                                           aug/05_MOL_non_aug/05_MOL/W4-11+ALK/b
                                           ef2/cc-pVTZ/TDDFT
