 DBCSR| CPU Multiplication driver                                           XSMM (U)
 DBCSR| Multrec recursion limit                                              512 (U)
 DBCSR| Multiplication stack size                                           1000 (D)
 DBCSR| Maximum elements for images                                    UNLIMITED (U)
 DBCSR| Multiplicative factor virtual images                                   1 (U)
 DBCSR| Use multiplication densification                                       T (D)
 DBCSR| Multiplication size stacks                                             3 (U)
 DBCSR| Use memory pool for CPU allocation                                     F (U)
 DBCSR| Number of 3D layers                                               SINGLE (U)
 DBCSR| Use MPI memory allocation                                              F (U)
 DBCSR| Use RMA algorithm                                                      F (U)
 DBCSR| Use Communication thread                                               T (U)
 DBCSR| Communication thread load                                             60 (D)
 DBCSR| MPI: My process id                                                     0
 DBCSR| MPI: Number of processes                                              80
 DBCSR| OMP: Current number of threads                                         8
 DBCSR| OMP: Max number of threads                                             8
 DBCSR| Split modifier for TAS multiplication algorithm                  1.0E+00 (U)


  **** **** ******  **  PROGRAM STARTED AT               2025-05-29 20:46:54.316
 ***** ** ***  *** **   PROGRAM STARTED ON                              n2cn0167
 **    ****   ******    PROGRAM STARTED BY                              metdyn02
 ***** **    ** ** **   PROGRAM PROCESS ID                               3423147
  **** **  *******  **  PROGRAM STARTED IN /scratch/hpc-prf-metdyn/metdyn02_Remi
                                           /10_MOL/05_MOL_low_scal/05_MOL/aUKBqs
                                           EOTmq69kFe5R_nOg/5k_set_final_qzvp/DU
                                           QPAH/SZV/1e-4/9.0

 CP2K| version string:                 CP2K version 2025.1 (Development Version)
 CP2K| source code revision number:                                  git:32ddf85
 CP2K| cp2kflags: omp libint fftw3 libxc libgrpp elpa parallel scalapack mpi_f08
 CP2K|             cosma xsmm plumed2 spglib libvori libbqb libvdwxc hdf5
 CP2K| is freely available from                            https://www.cp2k.org/
 CP2K| Program compiled at                         Mon May 19 11:32:37 CEST 2025
 CP2K| Program compiled on                                              n2login1
 CP2K| Program compiled for                                                local
 CP2K| Data directory path    /opt/software/pc2/EB-SW/software/CP2K/2024.1-foss-
 CP2K| Input file name                                                    GW.inp

 GLOBAL| Force Environment number                                              1
 GLOBAL| Basis set file name            /scratch/hpc-prf-metdyn/metdyn02_Remi/BA
 GLOBAL| Potential file name            /pc2/groups/hpc-prf-metdyn/metdyn02_Remi
 GLOBAL| MM Potential file name                                     MM_POTENTIAL
 GLOBAL| Coordinate file name                                      __STD_INPUT__
 GLOBAL| Method name                                                        CP2K
 GLOBAL| Project name                                                       MoS2
 GLOBAL| Run type                                                         ENERGY
 GLOBAL| FFT library                                                       FFTW3
 GLOBAL| Diagonalization library                                            ELPA
 GLOBAL| Cholesky decomposition library                                ScaLAPACK
 GLOBAL| DGEMM library                                                      BLAS
 GLOBAL| Minimum number of eigenvectors for ELPA usage                        16
 GLOBAL| Orthonormality check for eigenvectors                          DISABLED
 GLOBAL| Matrix multiplication library                                     COSMA
 GLOBAL| All-to-all communication in single precision                          F
 GLOBAL| FFTs using library dependent lengths                                  F
 GLOBAL| Grid backend                                                       AUTO
 GLOBAL| Global print level                                               MEDIUM
 GLOBAL| MPI I/O enabled                                                       T
 GLOBAL| Total number of message passing processes                            80
 GLOBAL| Number of threads for this process                                    8
 GLOBAL| This output is from process                                           0
 GLOBAL| OpenMP stack size per thread (OMP_STACKSIZE)                    default
 GLOBAL| CPU model name                          AMD EPYC 7763 64-Core Processor
 GLOBAL| CPUID                                                              1002

 MEMORY| system memory details [Kb]
 MEMORY|                        rank 0           min           max       average
 MEMORY| MemTotal            263897584     263897560     263899988     263897708
 MEMORY| MemFree             248788856     242005620     253358692     248361394
 MEMORY| Buffers                 52276         14776        132164         60447
 MEMORY| Cached               10078784       6188640      16752908      10633039
 MEMORY| Slab                  1842492       1237260       2025236       1717498
 MEMORY| SReclaimable           482152        270952        647472        403063
 MEMORY| MemLikelyFree       259402068     259193468     260011000     259457943


 *** Fundamental physical constants (SI units) ***

 *** Literature: B. J. Mohr and B. N. Taylor,
 ***             CODATA recommended values of the fundamental physical
 ***             constants: 2006, Web Version 5.1
 ***             http://physics.nist.gov/constants

 Speed of light in vacuum [m/s]                             2.99792458000000E+08
 Magnetic constant or permeability of vacuum [N/A**2]       1.25663706143592E-06
 Electric constant or permittivity of vacuum [F/m]          8.85418781762039E-12
 Planck constant (h) [J*s]                                  6.62606896000000E-34
 Planck constant (h-bar) [J*s]                              1.05457162825177E-34
 Elementary charge [C]                                      1.60217648700000E-19
 Electron mass [kg]                                         9.10938215000000E-31
 Electron g factor [ ]                                     -2.00231930436220E+00
 Proton mass [kg]                                           1.67262163700000E-27
 Fine-structure constant                                    7.29735253760000E-03
 Rydberg constant [1/m]                                     1.09737315685270E+07
 Avogadro constant [1/mol]                                  6.02214179000000E+23
 Boltzmann constant [J/K]                                   1.38065040000000E-23
 Atomic mass unit [kg]                                      1.66053878200000E-27
 Bohr radius [m]                                            5.29177208590000E-11

 *** Conversion factors ***

 [u] -> [a.u.]                                              1.82288848426455E+03
 [Angstrom] -> [Bohr] = [a.u.]                              1.88972613288564E+00
 [a.u.] = [Bohr] -> [Angstrom]                              5.29177208590000E-01
 [a.u.] -> [s]                                              2.41888432650478E-17
 [a.u.] -> [fs]                                             2.41888432650478E-02
 [a.u.] -> [J]                                              4.35974393937059E-18
 [a.u.] -> [N]                                              8.23872205491840E-08
 [a.u.] -> [K]                                              3.15774647902944E+05
 [a.u.] -> [kJ/mol]                                         2.62549961709828E+03
 [a.u.] -> [kcal/mol]                                       6.27509468713739E+02
 [a.u.] -> [Pa]                                             2.94210107994716E+13
 [a.u.] -> [bar]                                            2.94210107994716E+08
 [a.u.] -> [atm]                                            2.90362800883016E+08
 [a.u.] -> [eV]                                             2.72113838565563E+01
 [a.u.] -> [Hz]                                             6.57968392072181E+15
 [a.u.] -> [1/cm] (wave numbers)                            2.19474631370540E+05
 [a.u./Bohr**2] -> [1/cm]                                   5.14048714338585E+03
 

 CELL_TOP| Volume [angstrom^3]:                                     27000.000000
 CELL_TOP| Vector a [angstrom    30.000     0.000     0.000   |a| =    30.000000
 CELL_TOP| Vector b [angstrom     0.000    30.000     0.000   |b| =    30.000000
 CELL_TOP| Vector c [angstrom     0.000     0.000    30.000   |c| =    30.000000
 CELL_TOP| Angle (b,c), alpha [degree]:                                90.000000
 CELL_TOP| Angle (a,c), beta  [degree]:                                90.000000
 CELL_TOP| Angle (a,b), gamma [degree]:                                90.000000
 CELL_TOP| Numerically orthorhombic:                                         YES
 CELL_TOP| Periodicity                                                      NONE

 GENERATE|  Preliminary Number of Bonds generated:                             0
 GENERATE|  Achieved consistency in connectivity generation.

 CELL| Volume [angstrom^3]:                                         27000.000000
 CELL| Vector a [angstrom]:      30.000     0.000     0.000   |a| =    30.000000
 CELL| Vector b [angstrom]:       0.000    30.000     0.000   |b| =    30.000000
 CELL| Vector c [angstrom]:       0.000     0.000    30.000   |c| =    30.000000
 CELL| Angle (b,c), alpha [degree]:                                    90.000000
 CELL| Angle (a,c), beta  [degree]:                                    90.000000
 CELL| Angle (a,b), gamma [degree]:                                    90.000000
 CELL| Numerically orthorhombic:                                             YES
 CELL| Periodicity                                                          NONE

 CELL_REF| Volume [angstrom^3]:                                     27000.000000
 CELL_REF| Vector a [angstrom    30.000     0.000     0.000   |a| =    30.000000
 CELL_REF| Vector b [angstrom     0.000    30.000     0.000   |b| =    30.000000
 CELL_REF| Vector c [angstrom     0.000     0.000    30.000   |c| =    30.000000
 CELL_REF| Angle (b,c), alpha [degree]:                                90.000000
 CELL_REF| Angle (a,c), beta  [degree]:                                90.000000
 CELL_REF| Angle (a,b), gamma [degree]:                                90.000000
 CELL_REF| Numerically orthorhombic:                                         YES
 CELL_REF| Periodicity                                                      NONE

 *******************************************************************************
 *******************************************************************************
 **                                                                           **
 **     #####                         ##              ##                      **
 **    ##   ##            ##          ##              ##                      **
 **   ##     ##                       ##            ######                    **
 **   ##     ##  ##   ##  ##   #####  ##  ##   ####   ##    #####    #####    **
 **   ##     ##  ##   ##  ##  ##      ## ##   ##      ##   ##   ##  ##   ##   **
 **   ##  ## ##  ##   ##  ##  ##      ####     ###    ##   ######   ######    **
 **    ##  ###   ##   ##  ##  ##      ## ##      ##   ##   ##       ##        **
 **     #######   #####   ##   #####  ##  ##  ####    ##    #####   ##        **
 **           ##                                                    ##        **
 **                                                                           **
 **                                                ... make the atoms dance   **
 **                                                                           **
 **            Copyright (C) by CP2K developers group (2000-2025)             **
 **                      J. Chem. Phys. 152, 194103 (2020)                    **
 **                                                                           **
 *******************************************************************************

 DFT| Spin restricted Kohn-Sham (RKS) calculation                            RKS
 DFT| Multiplicity                                                             1
 DFT| Number of spin states                                                    1
 DFT| Charge                                                                   0
 DFT| Self-interaction correction (SIC)                                       NO
 DFT| Cutoffs: density                                              1.000000E-10
 DFT|          gradient                                             1.000000E-10
 DFT|          tau                                                  1.000000E-10
 DFT|          cutoff_smoothing_range                               0.000000E+00
 DFT| XC density smoothing                                                  NONE
 DFT| XC derivatives                                                          PW

 FUNCTIONAL| PBE:
 FUNCTIONAL| J.P.Perdew, K.Burke, M.Ernzerhof, Phys. Rev. Letter, vol. 77, n 18,
 FUNCTIONAL|  pp. 3865-3868, (1996)sx=0.750sc=1.000{spin unpolarized}           


 QS| Method:                                                                GAPW
 QS| Density plane wave grid type                        NON-SPHERICAL FULLSPACE
 QS| Number of grid levels:                                                    4
 QS| Density cutoff [a.u.]:                                                250.0
 QS| Multi grid cutoff [a.u.]: 1) grid level                               250.0
 QS|                           2) grid level                                83.3
 QS|                           3) grid level                                27.8
 QS|                           4) grid level                                 9.3
 QS| Grid level progression factor:                                          3.0
 QS| Relative density cutoff [a.u.]:                                        50.0
 QS| Interaction thresholds: eps_pgf_orb:                                1.0E-12
 QS|                         eps_filter_matrix:                          0.0E+00
 QS|                         eps_core_charge:                            1.0E-14
 QS|                         eps_rho_gspace:                             1.0E-12
 QS|                         eps_rho_rspace:                             1.0E-12
 QS|                         eps_gvg_rspace:                             1.0E-06
 QS|                         eps_ppl:                                    1.0E-02
 QS|                         eps_ppnl:                                   1.0E-08
 QS| GAPW|      One center basis from orbital basis primitives
 QS| GAPW|                   eps_fit:                                    1.0E-04
 QS| GAPW|                   eps_iso:                                    1.0E-12
 QS| GAPW|                   eps_svd:                                    1.0E-08
 QS| GAPW|                   eps_cpc:                                    1.0E-12
 QS| GAPW|   atom-r-grid: quadrature:                                     GC_LOG
 QS| GAPW|      atom-s-grid:  max l :                                          4
 QS| GAPW|      max_l_rho0 :                                                   2


 ATOMIC KIND INFORMATION

  1. Atomic kind: C                                     Number of atoms:       6

     Orbital Basis Set                                         aug-SZV-MOLOPT-ae

       Number of orbital shell sets:                                           2
       Number of orbital shells:                                               6
       Number of primitive Cartesian functions:                               13
       Number of Cartesian basis functions:                                   15
       Number of spherical basis functions:                                   14
       Norm type:                                                              2

       Normalised Cartesian orbitals:

                        Set   Shell   Orbital            Exponent    Coefficient

                          1       1    2s                0.070000       0.000000
                                                         0.143687       0.040037
                                                         0.313471       0.177689
                                                         0.721783       0.139661
                                                         1.876046      -0.038599
                                                         6.036200      -0.128975
                                                        30.497239      -0.122578

                          1       2    3s                0.070000      -0.142268
                                                         0.143687       0.288819
                                                         0.313471       0.010360
                                                         0.721783       0.175994
                                                         1.876046       0.000000
                                                         6.036200       0.000000
                                                        30.497239       0.000000

                          1       3    3px               0.070000       0.000000
                                                         0.143687       0.012825
                                                         0.313471       0.142381
                                                         0.721783       0.396426
                                                         1.876046       0.544234
                                                         6.036200       0.508157
                                                        30.497239       0.384077
                          1       3    3py               0.070000       0.000000
                                                         0.143687       0.012825
                                                         0.313471       0.142381
                                                         0.721783       0.396426
                                                         1.876046       0.544234
                                                         6.036200       0.508157
                                                        30.497239       0.384077
                          1       3    3pz               0.070000       0.000000
                                                         0.143687       0.012825
                                                         0.313471       0.142381
                                                         0.721783       0.396426
                                                         1.876046       0.544234
                                                         6.036200       0.508157
                                                        30.497239       0.384077

                          1       4    4px               0.070000       0.076505
                                                         0.143687      -0.086104
                                                         0.313471       0.010230
                                                         0.721783       0.129894
                                                         1.876046       0.000000
                                                         6.036200       0.000000
                                                        30.497239       0.000000
                          1       4    4py               0.070000       0.076505
                                                         0.143687      -0.086104
                                                         0.313471       0.010230
                                                         0.721783       0.129894
                                                         1.876046       0.000000
                                                         6.036200       0.000000
                                                        30.497239       0.000000
                          1       4    4pz               0.070000       0.076505
                                                         0.143687      -0.086104
                                                         0.313471       0.010230
                                                         0.721783       0.129894
                                                         1.876046       0.000000
                                                         6.036200       0.000000
                                                        30.497239       0.000000

                          1       5    4dx2              0.070000       0.004316
                                                         0.143687       0.012639
                                                         0.313471       0.125057
                                                         0.721783       0.080411
                                                         1.876046       0.000000
                                                         6.036200       0.000000
                                                        30.497239       0.000000
                          1       5    4dxy              0.070000       0.007476
                                                         0.143687       0.021892
                                                         0.313471       0.216606
                                                         0.721783       0.139276
                                                         1.876046       0.000000
                                                         6.036200       0.000000
                                                        30.497239       0.000000
                          1       5    4dxz              0.070000       0.007476
                                                         0.143687       0.021892
                                                         0.313471       0.216606
                                                         0.721783       0.139276
                                                         1.876046       0.000000
                                                         6.036200       0.000000
                                                        30.497239       0.000000
                          1       5    4dy2              0.070000       0.004316
                                                         0.143687       0.012639
                                                         0.313471       0.125057
                                                         0.721783       0.080411
                                                         1.876046       0.000000
                                                         6.036200       0.000000
                                                        30.497239       0.000000
                          1       5    4dyz              0.070000       0.007476
                                                         0.143687       0.021892
                                                         0.313471       0.216606
                                                         0.721783       0.139276
                                                         1.876046       0.000000
                                                         6.036200       0.000000
                                                        30.497239       0.000000
                          1       5    4dz2              0.070000       0.004316
                                                         0.143687       0.012639
                                                         0.313471       0.125057
                                                         0.721783       0.080411
                                                         1.876046       0.000000
                                                         6.036200       0.000000
                                                        30.497239       0.000000

                          2       1    1s              742.737049       0.929185
                                                       136.180025       1.402437
                                                        38.098264       1.841991
                                                        13.087782       1.817278
                                                         5.082369       1.004768
                                                         2.093200       0.161650

     RI Auxiliary Basis Set             RI_aug-SZV-MOLOPT-ae_N_RI_048_s_p_d_f_g_

       Number of orbital shell sets:                                          14
       Number of orbital shells:                                              14
       Number of primitive Cartesian functions:                               14
       Number of Cartesian basis functions:                                   62
       Number of spherical basis functions:                                   48
       Norm type:                                                              2

       Normalised Cartesian orbitals:

                        Set   Shell   Orbital            Exponent    Coefficient

                          1       1    1s                0.182132       0.198701

                          2       1    7px               0.213594       0.206979
                          2       1    7py               0.213594       0.206979
                          2       1    7pz               0.213594       0.206979

                          3       1   10dx2              0.381125       0.304282
                          3       1   10dxy              0.381125       0.527033
                          3       1   10dxz              0.381125       0.527033
                          3       1   10dy2              0.381125       0.304282
                          3       1   10dyz              0.381125       0.527033
                          3       1   10dz2              0.381125       0.304282

                          4       1    2s                0.433905       0.381027

                          5       1   12fx3              0.524446       0.344573
                          5       1   12fx2y             0.524446       0.770488
                          5       1   12fx2z             0.524446       0.770488
                          5       1   12fxy2             0.524446       0.770488
                          5       1   12fxyz             0.524446       1.334524
                          5       1   12fxz2             0.524446       0.770488
                          5       1   12fy3              0.524446       0.344573
                          5       1   12fy2z             0.524446       0.770488
                          5       1   12fyz2             0.524446       0.770488
                          5       1   12fz3              0.524446       0.344573

                          6       1    8px               0.915857       1.277099
                          6       1    8py               0.915857       1.277099
                          6       1    8pz               0.915857       1.277099

                          7       1   14gx4              1.217666       1.912659
                          7       1   14gx3y             1.217666       5.060419
                          7       1   14gx3z             1.217666       5.060419
                          7       1   14gx2y2            1.217666       6.532973
                          7       1   14gx2yz            1.217666      11.315442
                          7       1   14gx2z2            1.217666       6.532973
                          7       1   14gxy3             1.217666       5.060419
                          7       1   14gxy2z            1.217666      11.315442
                          7       1   14gxyz2            1.217666      11.315442
                          7       1   14gxz3             1.217666       5.060419
                          7       1   14gy4              1.217666       1.912659
                          7       1   14gy3z             1.217666       5.060419
                          7       1   14gy2z2            1.217666       6.532973
                          7       1   14gyz3             1.217666       5.060419
                          7       1   14gz4              1.217666       1.912659

                          8       1   11dx2              1.581488       3.670921
                          8       1   11dxy              1.581488       6.358221
                          8       1   11dxz              1.581488       6.358221
                          8       1   11dy2              1.581488       3.670921
                          8       1   11dyz              1.581488       6.358221
                          8       1   11dz2              1.581488       3.670921

                          9       1    3s                1.620693       1.023730

                         10       1   13fx3              2.677157      13.496481
                         10       1   13fx2y             2.677157      30.179050
                         10       1   13fx2z             2.677157      30.179050
                         10       1   13fxy2             2.677157      30.179050
                         10       1   13fxyz             2.677157      52.271648
                         10       1   13fxz2             2.677157      30.179050
                         10       1   13fy3              2.677157      13.496481
                         10       1   13fy2z             2.677157      30.179050
                         10       1   13fyz2             2.677157      30.179050
                         10       1   13fz3              2.677157      13.496481

                         11       1    4s                5.999661       2.732154

                         12       1    9px               9.284861      23.102519
                         12       1    9py               9.284861      23.102519
                         12       1    9pz               9.284861      23.102519

                         13       1    5s               22.224963       7.295262

                         14       1    6s               82.329769      19.479498

       Atomic covalent radius [Angstrom]:                                  0.770

       Atomic van der Waals radius [Angstrom]:                             1.700

     The atoms of this atomic kind are PAW atoms (GAPW):
       Hard Gaussian function radius:                                      1.512
       Rho0 radius:                                                        1.512
       Maximum GTO radius used for PAW projector construction:            24.566

     GAPW Soft Basis Set                                  aug-SZV-MOLOPT-ae_soft

       Number of orbital shell sets:                                           2
       Number of orbital shells:                                               6
       Number of primitive Cartesian functions:                                6
       Number of Cartesian basis functions:                                   15
       Number of spherical basis functions:                                   14
       Norm type:                                                              2

       Normalised Cartesian orbitals:

                        Set   Shell   Orbital            Exponent    Coefficient

                          1       1    2s                0.070000       0.000000
                                                         0.143687       0.040037
                                                         0.313471       0.177689
                                                         0.721783       0.139661
                                                         1.876046      -0.038599

                          1       2    3s                0.070000      -0.142268
                                                         0.143687       0.288819
                                                         0.313471       0.010360
                                                         0.721783       0.175994
                                                         1.876046       0.000000

                          1       3    3px               0.070000       0.000000
                                                         0.143687       0.012825
                                                         0.313471       0.142381
                                                         0.721783       0.396426
                                                         1.876046       0.544234
                          1       3    3py               0.070000       0.000000
                                                         0.143687       0.012825
                                                         0.313471       0.142381
                                                         0.721783       0.396426
                                                         1.876046       0.544234
                          1       3    3pz               0.070000       0.000000
                                                         0.143687       0.012825
                                                         0.313471       0.142381
                                                         0.721783       0.396426
                                                         1.876046       0.544234

                          1       4    4px               0.070000       0.076505
                                                         0.143687      -0.086104
                                                         0.313471       0.010230
                                                         0.721783       0.129894
                                                         1.876046       0.000000
                          1       4    4py               0.070000       0.076505
                                                         0.143687      -0.086104
                                                         0.313471       0.010230
                                                         0.721783       0.129894
                                                         1.876046       0.000000
                          1       4    4pz               0.070000       0.076505
                                                         0.143687      -0.086104
                                                         0.313471       0.010230
                                                         0.721783       0.129894
                                                         1.876046       0.000000

                          1       5    4dx2              0.070000       0.004316
                                                         0.143687       0.012639
                                                         0.313471       0.125057
                                                         0.721783       0.080411
                                                         1.876046       0.000000
                          1       5    4dxy              0.070000       0.007476
                                                         0.143687       0.021892
                                                         0.313471       0.216606
                                                         0.721783       0.139276
                                                         1.876046       0.000000
                          1       5    4dxz              0.070000       0.007476
                                                         0.143687       0.021892
                                                         0.313471       0.216606
                                                         0.721783       0.139276
                                                         1.876046       0.000000
                          1       5    4dy2              0.070000       0.004316
                                                         0.143687       0.012639
                                                         0.313471       0.125057
                                                         0.721783       0.080411
                                                         1.876046       0.000000
                          1       5    4dyz              0.070000       0.007476
                                                         0.143687       0.021892
                                                         0.313471       0.216606
                                                         0.721783       0.139276
                                                         1.876046       0.000000
                          1       5    4dz2              0.070000       0.004316
                                                         0.143687       0.012639
                                                         0.313471       0.125057
                                                         0.721783       0.080411
                                                         1.876046       0.000000

                          2       1    1s                2.093200       0.161650

     AE Potential information for                                            ALL

       Description:                                       All-electron potential
                                          Krack, Parrinello, PCCP 2, 2105 (2000)

       Gaussian exponent of the core charge distribution:               4.109048
       Electronic configuration (s p d ...):                           4   2   0

  2. Atomic kind: H                                     Number of atoms:       8

     Orbital Basis Set                                         aug-SZV-MOLOPT-ae

       Number of orbital shell sets:                                           1
       Number of orbital shells:                                               4
       Number of primitive Cartesian functions:                                7
       Number of Cartesian basis functions:                                    6
       Number of spherical basis functions:                                    6
       Norm type:                                                              2

       Normalised Cartesian orbitals:

                        Set   Shell   Orbital            Exponent    Coefficient

                          1       1    1s                0.065428       0.000000
                                                         0.100112       0.016532
                                                         0.243077       0.102760
                                                         0.625955       0.185857
                                                         1.822143       0.188385
                                                         6.513144       0.143430
                                                        35.523221       0.095030

                          1       2    2s                0.065428       0.083549
                                                         0.100112       0.009605
                                                         0.243077       0.002524
                                                         0.625955       0.013457
                                                         1.822143       0.000000
                                                         6.513144       0.000000
                                                        35.523221       0.000000

                          1       3    3s                0.065428       0.037407
                                                         0.100112      -0.169070
                                                         0.243077      -0.018899
                                                         0.625955       0.012806
                                                         1.822143       0.000000
                                                         6.513144       0.000000
                                                        35.523221       0.000000

                          1       4    2px               0.065428       0.059908
                                                         0.100112      -0.023770
                                                         0.243077       0.000032
                                                         0.625955       0.017779
                                                         1.822143       0.000000
                                                         6.513144       0.000000
                                                        35.523221       0.000000
                          1       4    2py               0.065428       0.059908
                                                         0.100112      -0.023770
                                                         0.243077       0.000032
                                                         0.625955       0.017779
                                                         1.822143       0.000000
                                                         6.513144       0.000000
                                                        35.523221       0.000000
                          1       4    2pz               0.065428       0.059908
                                                         0.100112      -0.023770
                                                         0.243077       0.000032
                                                         0.625955       0.017779
                                                         1.822143       0.000000
                                                         6.513144       0.000000
                                                        35.523221       0.000000

     RI Auxiliary Basis Set             RI_aug-SZV-MOLOPT-ae_N_RI_007_s_p_d_f_g_

       Number of orbital shell sets:                                           5
       Number of orbital shells:                                               5
       Number of primitive Cartesian functions:                                5
       Number of Cartesian basis functions:                                    7
       Number of spherical basis functions:                                    7
       Norm type:                                                              2

       Normalised Cartesian orbitals:

                        Set   Shell   Orbital            Exponent    Coefficient

                          1       1    1s                0.148777       0.170731

                          2       1    5px               0.367452       0.407794
                          2       1    5py               0.367452       0.407794
                          2       1    5pz               0.367452       0.407794

                          3       1    2s                0.510503       0.430437

                          4       1    3s                1.106366       0.768837

                          5       1    4s                5.955292       2.716986

       Atomic covalent radius [Angstrom]:                                  0.320

       Atomic van der Waals radius [Angstrom]:                             1.090

     The atoms of this atomic kind are PAW atoms (GAPW):
       Hard Gaussian function radius:                                      1.200
       Rho0 radius:                                                        1.200
       Maximum GTO radius used for PAW projector construction:            24.566

     GAPW Soft Basis Set                                  aug-SZV-MOLOPT-ae_soft

       Number of orbital shell sets:                                           1
       Number of orbital shells:                                               4
       Number of primitive Cartesian functions:                                6
       Number of Cartesian basis functions:                                    6
       Number of spherical basis functions:                                    6
       Norm type:                                                              2

       Normalised Cartesian orbitals:

                        Set   Shell   Orbital            Exponent    Coefficient

                          1       1    1s                0.065428       0.000000
                                                         0.100112       0.016532
                                                         0.243077       0.102760
                                                         0.625955       0.185857
                                                         1.822143       0.188385
                                                         6.513144       0.000000

                          1       2    2s                0.065428       0.083549
                                                         0.100112       0.009605
                                                         0.243077       0.002524
                                                         0.625955       0.013457
                                                         1.822143       0.000000
                                                         6.513144       0.000000

                          1       3    3s                0.065428       0.037407
                                                         0.100112      -0.169070
                                                         0.243077      -0.018899
                                                         0.625955       0.012806
                                                         1.822143       0.000000
                                                         6.513144       0.000000

                          1       4    2px               0.065428       0.059908
                                                         0.100112      -0.023770
                                                         0.243077       0.000032
                                                         0.625955       0.017779
                                                         1.822143       0.000000
                                                         6.513144       0.000000
                          1       4    2py               0.065428       0.059908
                                                         0.100112      -0.023770
                                                         0.243077       0.000032
                                                         0.625955       0.017779
                                                         1.822143       0.000000
                                                         6.513144       0.000000
                          1       4    2pz               0.065428       0.059908
                                                         0.100112      -0.023770
                                                         0.243077       0.000032
                                                         0.625955       0.017779
                                                         1.822143       0.000000
                                                         6.513144       0.000000

     AE Potential information for                                            ALL

       Description:                                       All-electron potential
                                          Krack, Parrinello, PCCP 2, 2105 (2000)

       Gaussian exponent of the core charge distribution:              12.500000
       Electronic configuration (s p d ...):                           1   0   0

  3. Atomic kind: N                                     Number of atoms:       2

     Orbital Basis Set                                         aug-SZV-MOLOPT-ae

       Number of orbital shell sets:                                           2
       Number of orbital shells:                                               6
       Number of primitive Cartesian functions:                               13
       Number of Cartesian basis functions:                                   15
       Number of spherical basis functions:                                   14
       Norm type:                                                              2

       Normalised Cartesian orbitals:

                        Set   Shell   Orbital            Exponent    Coefficient

                          1       1    1s                0.090000       0.000000
                                                         0.184684       0.048330
                                                         0.402911       0.214496
                                                         0.927724       0.168591
                                                         2.411326      -0.046594
                                                         7.758467      -0.155691
                                                        39.198808      -0.147969

                          1       2    2s                0.090000      -0.118940
                                                         0.184684       0.080942
                                                         0.402911      -0.164238
                                                         0.927724      -0.024406
                                                         2.411326       0.000000
                                                         7.758467       0.000000
                                                        39.198808       0.000000

                          1       3    2px               0.090000       0.000000
                                                         0.184684       0.017552
                                                         0.402911       0.194858
                                                         0.927724       0.542535
                                                         2.411326       0.744820
                                                         7.758467       0.695446
                                                        39.198808       0.525635
                          1       3    2py               0.090000       0.000000
                                                         0.184684       0.017552
                                                         0.402911       0.194858
                                                         0.927724       0.542535
                                                         2.411326       0.744820
                                                         7.758467       0.695446
                                                        39.198808       0.525635
                          1       3    2pz               0.090000       0.000000
                                                         0.184684       0.017552
                                                         0.402911       0.194858
                                                         0.927724       0.542535
                                                         2.411326       0.744820
                                                         7.758467       0.695446
                                                        39.198808       0.525635

                          1       4    3px               0.090000      -0.032237
                                                         0.184684      -0.080882
                                                         0.402911       0.112185
                                                         0.927724       1.067728
                                                         2.411326       0.000000
                                                         7.758467       0.000000
                                                        39.198808       0.000000
                          1       4    3py               0.090000      -0.032237
                                                         0.184684      -0.080882
                                                         0.402911       0.112185
                                                         0.927724       1.067728
                                                         2.411326       0.000000
                                                         7.758467       0.000000
                                                        39.198808       0.000000
                          1       4    3pz               0.090000      -0.032237
                                                         0.184684      -0.080882
                                                         0.402911       0.112185
                                                         0.927724       1.067728
                                                         2.411326       0.000000
                                                         7.758467       0.000000
                                                        39.198808       0.000000

                          1       5    3dx2              0.090000      -0.010633
                                                         0.184684      -0.050923
                                                         0.402911       0.103346
                                                         0.927724      -0.777682
                                                         2.411326       0.000000
                                                         7.758467       0.000000
                                                        39.198808       0.000000
                          1       5    3dxy              0.090000      -0.018417
                                                         0.184684      -0.088201
                                                         0.402911       0.179000
                                                         0.927724      -1.346985
                                                         2.411326       0.000000
                                                         7.758467       0.000000
                                                        39.198808       0.000000
                          1       5    3dxz              0.090000      -0.018417
                                                         0.184684      -0.088201
                                                         0.402911       0.179000
                                                         0.927724      -1.346985
                                                         2.411326       0.000000
                                                         7.758467       0.000000
                                                        39.198808       0.000000
                          1       5    3dy2              0.090000      -0.010633
                                                         0.184684      -0.050923
                                                         0.402911       0.103346
                                                         0.927724      -0.777682
                                                         2.411326       0.000000
                                                         7.758467       0.000000
                                                        39.198808       0.000000
                          1       5    3dyz              0.090000      -0.018417
                                                         0.184684      -0.088201
                                                         0.402911       0.179000
                                                         0.927724      -1.346985
                                                         2.411326       0.000000
                                                         7.758467       0.000000
                                                        39.198808       0.000000
                          1       5    3dz2              0.090000      -0.010633
                                                         0.184684      -0.050923
                                                         0.402911       0.103346
                                                         0.927724      -0.777682
                                                         2.411326       0.000000
                                                         7.758467       0.000000
                                                        39.198808       0.000000

                          2       1    1s             1027.828458       1.185541
                                                       188.451223       1.789359
                                                        52.721861       2.350183
                                                        18.111382       2.318652
                                                         7.033180       1.281976
                                                         2.896652       0.206248

     RI Auxiliary Basis Set             RI_aug-SZV-MOLOPT-ae_N_RI_043_s_p_d_f_g_

       Number of orbital shell sets:                                          15
       Number of orbital shells:                                              15
       Number of primitive Cartesian functions:                               15
       Number of Cartesian basis functions:                                   49
       Number of spherical basis functions:                                   43
       Norm type:                                                              2

       Normalised Cartesian orbitals:

                        Set   Shell   Orbital            Exponent    Coefficient

                          1       1    1s                0.348881       0.323533

                          2       1   12dx2              0.415899       0.354517
                          2       1   12dxy              0.415899       0.614042
                          2       1   12dxz              0.415899       0.614042
                          2       1   12dy2              0.415899       0.354517
                          2       1   12dyz              0.415899       0.614042
                          2       1   12dz2              0.415899       0.354517

                          3       1    7px               0.565430       0.698898
                          3       1    7py               0.565430       0.698898
                          3       1    7pz               0.565430       0.698898

                          4       1    2s                0.604256       0.488456

                          5       1    8px               0.736384       0.972345
                          5       1    8py               0.736384       0.972345
                          5       1    8pz               0.736384       0.972345

                          6       1   15fx3              1.197807       2.209658
                          6       1   15fx2y             1.197807       4.940945
                          6       1   15fx2z             1.197807       4.940945
                          6       1   15fxy2             1.197807       4.940945
                          6       1   15fxyz             1.197807       8.557969
                          6       1   15fxz2             1.197807       4.940945
                          6       1   15fy3              1.197807       2.209658
                          6       1   15fy2z             1.197807       4.940945
                          6       1   15fyz2             1.197807       4.940945
                          6       1   15fz3              1.197807       2.209658

                          7       1   13dx2              1.339145       2.743833
                          7       1   13dxy              1.339145       4.752458
                          7       1   13dxz              1.339145       4.752458
                          7       1   13dy2              1.339145       2.743833
                          7       1   13dyz              1.339145       4.752458
                          7       1   13dz2              1.339145       2.743833

                          8       1    3s                2.115726       1.250273

                          9       1    9px               3.057998       5.764167
                          9       1    9py               3.057998       5.764167
                          9       1    9pz               3.057998       5.764167

                         10       1   14dx2              5.406341      31.549351
                         10       1   14dxy              5.406341      54.645078
                         10       1   14dxz              5.406341      54.645078
                         10       1   14dy2              5.406341      31.549351
                         10       1   14dyz              5.406341      54.645078
                         10       1   14dz2              5.406341      31.549351

                         11       1    4s                8.101925       3.422562

                         12       1   10px               9.242623      22.971223
                         12       1   10py               9.242623      22.971223
                         12       1   10pz               9.242623      22.971223

                         13       1   11px              24.533825      77.829934
                         13       1   11py              24.533825      77.829934
                         13       1   11pz              24.533825      77.829934

                         14       1    5s               30.207474       9.183239

                         15       1    6s              110.078037      24.220639

       Atomic covalent radius [Angstrom]:                                  0.750

       Atomic van der Waals radius [Angstrom]:                             1.550

     The atoms of this atomic kind are PAW atoms (GAPW):
       Hard Gaussian function radius:                                      1.512
       Rho0 radius:                                                        1.512
       Maximum GTO radius used for PAW projector construction:            24.566

     GAPW Soft Basis Set                                  aug-SZV-MOLOPT-ae_soft

       Number of orbital shell sets:                                           2
       Number of orbital shells:                                               6
       Number of primitive Cartesian functions:                                6
       Number of Cartesian basis functions:                                   15
       Number of spherical basis functions:                                   14
       Norm type:                                                              2

       Normalised Cartesian orbitals:

                        Set   Shell   Orbital            Exponent    Coefficient

                          1       1    1s                0.090000       0.000000
                                                         0.184684       0.048330
                                                         0.402911       0.214496
                                                         0.927724       0.168591
                                                         2.411326      -0.046594

                          1       2    2s                0.090000      -0.118940
                                                         0.184684       0.080942
                                                         0.402911      -0.164238
                                                         0.927724      -0.024406
                                                         2.411326       0.000000

                          1       3    2px               0.090000       0.000000
                                                         0.184684       0.017552
                                                         0.402911       0.194858
                                                         0.927724       0.542535
                                                         2.411326       0.744820
                          1       3    2py               0.090000       0.000000
                                                         0.184684       0.017552
                                                         0.402911       0.194858
                                                         0.927724       0.542535
                                                         2.411326       0.744820
                          1       3    2pz               0.090000       0.000000
                                                         0.184684       0.017552
                                                         0.402911       0.194858
                                                         0.927724       0.542535
                                                         2.411326       0.744820

                          1       4    3px               0.090000      -0.032237
                                                         0.184684      -0.080882
                                                         0.402911       0.112185
                                                         0.927724       1.067728
                                                         2.411326       0.000000
                          1       4    3py               0.090000      -0.032237
                                                         0.184684      -0.080882
                                                         0.402911       0.112185
                                                         0.927724       1.067728
                                                         2.411326       0.000000
                          1       4    3pz               0.090000      -0.032237
                                                         0.184684      -0.080882
                                                         0.402911       0.112185
                                                         0.927724       1.067728
                                                         2.411326       0.000000

                          1       5    3dx2              0.090000      -0.010633
                                                         0.184684      -0.050923
                                                         0.402911       0.103346
                                                         0.927724      -0.777682
                                                         2.411326       0.000000
                          1       5    3dxy              0.090000      -0.018417
                                                         0.184684      -0.088201
                                                         0.402911       0.179000
                                                         0.927724      -1.346985
                                                         2.411326       0.000000
                          1       5    3dxz              0.090000      -0.018417
                                                         0.184684      -0.088201
                                                         0.402911       0.179000
                                                         0.927724      -1.346985
                                                         2.411326       0.000000
                          1       5    3dy2              0.090000      -0.010633
                                                         0.184684      -0.050923
                                                         0.402911       0.103346
                                                         0.927724      -0.777682
                                                         2.411326       0.000000
                          1       5    3dyz              0.090000      -0.018417
                                                         0.184684      -0.088201
                                                         0.402911       0.179000
                                                         0.927724      -1.346985
                                                         2.411326       0.000000
                          1       5    3dz2              0.090000      -0.010633
                                                         0.184684      -0.050923
                                                         0.402911       0.103346
                                                         0.927724      -0.777682
                                                         2.411326       0.000000

                          2       1    1s                2.896652       0.206248

     AE Potential information for                                            ALL

       Description:                                       All-electron potential
                                          Krack, Parrinello, PCCP 2, 2105 (2000)

       Gaussian exponent of the core charge distribution:               5.979100
       Electronic configuration (s p d ...):                           4   3   0

  4. Atomic kind: S                                     Number of atoms:       1

     Orbital Basis Set                                         aug-SZV-MOLOPT-ae

       Number of orbital shell sets:                                           3
       Number of orbital shells:                                               8
       Number of primitive Cartesian functions:                               19
       Number of Cartesian basis functions:                                   19
       Number of spherical basis functions:                                   18
       Norm type:                                                              2

       Normalised Cartesian orbitals:

                        Set   Shell   Orbital            Exponent    Coefficient

                          1       1    1s                0.072000       0.000000
                                                         0.148404       0.047043
                                                         0.287959       0.206056
                                                         0.581913       0.071732
                                                         1.300021      -0.154888
                                                         3.466625      -0.128563
                                                        12.944394      -0.038633

                          1       2    2s                0.072000       0.024465
                                                         0.148404       0.270123
                                                         0.287959      -0.286184
                                                         0.581913       0.001423
                                                         1.300021       0.046778
                                                         3.466625       0.000000
                                                        12.944394       0.000000

                          1       3    2px               0.072000       0.000000
                                                         0.148404       0.013902
                                                         0.287959       0.147021
                                                         0.581913       0.300295
                                                         1.300021       0.150808
                                                         3.466625      -0.123340
                                                        12.944394      -0.249863
                          1       3    2py               0.072000       0.000000
                                                         0.148404       0.013902
                                                         0.287959       0.147021
                                                         0.581913       0.300295
                                                         1.300021       0.150808
                                                         3.466625      -0.123340
                                                        12.944394      -0.249863
                          1       3    2pz               0.072000       0.000000
                                                         0.148404       0.013902
                                                         0.287959       0.147021
                                                         0.581913       0.300295
                                                         1.300021       0.150808
                                                         3.466625      -0.123340
                                                        12.944394      -0.249863

                          1       4    3px               0.072000      -0.066040
                                                         0.148404       0.050064
                                                         0.287959      -0.069730
                                                         0.581913       0.158592
                                                         1.300021      -0.055990
                                                         3.466625       0.000000
                                                        12.944394       0.000000
                          1       4    3py               0.072000      -0.066040
                                                         0.148404       0.050064
                                                         0.287959      -0.069730
                                                         0.581913       0.158592
                                                         1.300021      -0.055990
                                                         3.466625       0.000000
                                                        12.944394       0.000000
                          1       4    3pz               0.072000      -0.066040
                                                         0.148404       0.050064
                                                         0.287959      -0.069730
                                                         0.581913       0.158592
                                                         1.300021      -0.055990
                                                         3.466625       0.000000
                                                        12.944394       0.000000

                          1       5    3dx2              0.072000       0.001679
                                                         0.148404       0.023049
                                                         0.287959       0.065695
                                                         0.581913       0.132541
                                                         1.300021       0.392654
                                                         3.466625       0.000000
                                                        12.944394       0.000000
                          1       5    3dxy              0.072000       0.002907
                                                         0.148404       0.039921
                                                         0.287959       0.113787
                                                         0.581913       0.229567
                                                         1.300021       0.680096
                                                         3.466625       0.000000
                                                        12.944394       0.000000
                          1       5    3dxz              0.072000       0.002907
                                                         0.148404       0.039921
                                                         0.287959       0.113787
                                                         0.581913       0.229567
                                                         1.300021       0.680096
                                                         3.466625       0.000000
                                                        12.944394       0.000000
                          1       5    3dy2              0.072000       0.001679
                                                         0.148404       0.023049
                                                         0.287959       0.065695
                                                         0.581913       0.132541
                                                         1.300021       0.392654
                                                         3.466625       0.000000
                                                        12.944394       0.000000
                          1       5    3dyz              0.072000       0.002907
                                                         0.148404       0.039921
                                                         0.287959       0.113787
                                                         0.581913       0.229567
                                                         1.300021       0.680096
                                                         3.466625       0.000000
                                                        12.944394       0.000000
                          1       5    3dz2              0.072000       0.001679
                                                         0.148404       0.023049
                                                         0.287959       0.065695
                                                         0.581913       0.132541
                                                         1.300021       0.392654
                                                         3.466625       0.000000
                                                        12.944394       0.000000

                          2       1    1s              345.589679      -0.757073
                                                        68.401217      -0.796580
                                                        21.259047      -0.238395
                                                         8.179122       0.862581
                                                         3.552198       1.097452
                                                         1.628232       0.247277

                          2       2    2px             345.589679       7.985348
                                                        68.401217      10.565097
                                                        21.259047      11.315175
                                                         8.179122       8.242094
                                                         3.552198       2.960247
                                                         1.628232       0.266650
                          2       2    2py             345.589679       7.985348
                                                        68.401217      10.565097
                                                        21.259047      11.315175
                                                         8.179122       8.242094
                                                         3.552198       2.960247
                                                         1.628232       0.266650
                          2       2    2pz             345.589679       7.985348
                                                        68.401217      10.565097
                                                        21.259047      11.315175
                                                         8.179122       8.242094
                                                         3.552198       2.960247
                                                         1.628232       0.266650

                          3       1    1s             5529.038289       4.187581
                                                      1013.743118       6.320396
                                                       283.608793       8.301345
[...]
 transfer_pw2rs_90                   91 12.0    0.183    0.213    1.192    1.421
 create_and_init_bs_env_for_gw        1  6.0    0.000    0.000    1.339    1.372
 pw_scatter_p                       995 12.1    1.249    1.302    1.249    1.302
 eigensolver_symm                    90  6.0    0.006    0.007    1.275    1.285
 mp_sum_dm                         5003  7.7    1.149    1.260    1.149    1.260
 dbm_multiply                       466 16.4    1.038    1.226    1.038    1.226
 cp_fm_diag_elpa                     96  7.1    0.000    0.000    1.178    1.188
 cp2k_distribution_to_z_slices       91  9.0    0.338    0.388    1.149    1.181
 cp_fm_diag_elpa_base                96  8.0    1.070    1.144    1.090    1.156
 pw_derive                          813 11.3    1.067    1.149    1.067    1.149
 fft_wrap_pw1pw2_90                 182 10.5    0.028    0.030    1.050    1.104
 pw_gather_p                        907 11.8    0.939    1.048    0.939    1.048
 G_times_3c                          60  8.0    0.000    0.000    1.014    1.014
 pw_copy                           1360 10.6    0.934    0.983    0.934    0.983
 mp_sum_dv                         6155  8.7    0.913    0.981    0.913    0.981
 copy_dbcsr_to_fm                   284  8.3    0.003    0.003    0.903    0.952
 dbcsr_complete_redistribute        616  9.4    0.018    0.023    0.905    0.922
 dbt_tas_distribution_new          1248 14.4    0.485    0.490    0.893    0.899
 abc_contract_xsmm                99816 10.6    0.199    0.867    0.199    0.867
 dbt_tas_estimate_result_nze        233 12.9    0.046    0.062    0.814    0.816
 fm_write                           121  9.0    0.006    0.276    0.653    0.814
 dbt_tas_create_split              1558 15.2    0.001    0.001    0.756    0.760
 dbt_tas_create_split_rows_or_c    1558 16.2    0.004    0.004    0.754    0.759
 mp_isend_dv                      26092 13.9    0.249    0.751    0.249    0.751
 compute_V_xc                         1  7.0    0.000    0.000    0.748    0.748
 write_matrix                        91  8.0    0.000    0.000    0.610    0.726
 rs_grid_zero                       457 11.2    0.663    0.722    0.663    0.722
 calculate_dm_sparse                 90  6.0    0.000    0.000    0.479    0.708
 cp_dbcsr_plus_fm_fm_t               90  7.0    0.001    0.001    0.478    0.708
 rs_gather_matrices                  91 10.0    0.002    0.004    0.568    0.702
 cp_fm_write_unformatted            126  9.9    0.680    0.687    0.682    0.700
 dbt_tas_mm_2                       174 15.2    0.000    0.000    0.692    0.692
 pw_poisson_set                      92  9.0    0.001    0.001    0.616    0.660
 fm_to_local_tensor                 152  8.0    0.001    0.002    0.651    0.658
 pw_copy_to_array                   907 11.8    0.531    0.652    0.531    0.652
 parallel_gemm_fm                   364  8.2    0.000    0.000    0.599    0.642
 parallel_gemm_fm_cosma             364  9.2    0.598    0.642    0.598    0.642
 mp_sum_l                          3448 12.2    0.567    0.623    0.567    0.623
 reshape_mm_small                   466 14.4    0.032    0.034    0.614    0.619
 grid_integrate_task_list            91 10.0    0.114    0.597    0.114    0.597
 parallel_gemm_cfm                  285 10.4    0.000    0.000    0.552    0.561
 parallel_gemm_cfm_cosma            285 11.4    0.552    0.560    0.552    0.560
 pw_copy_from_array                 995 12.1    0.463    0.560    0.463    0.560
 transfer_rs2pw_10                   91  9.0    0.092    0.096    0.451    0.560
 mp_bcast_dm                       3277  9.0    0.527    0.550    0.527    0.550
 calculate_rho_atom_coeff            91  6.0    0.041    0.050    0.465    0.467
 pw_integral_ab_c1d_c1d_gs           91  9.0    0.398    0.406    0.443    0.463
 dbcsr_desymmetrize_deep            290  9.3    0.005    0.005    0.414    0.461
 convert_to_new_pgrid              1398 14.4    0.141    0.164    0.375    0.458
 mp_isend_dm3                      3288 11.5    0.066    0.450    0.066    0.450
 mp_alltoall_i11v                  2138 10.4    0.442    0.443    0.442    0.443
 copy_fm_to_dbcsr                   332  8.5    0.001    0.001    0.424    0.441
 dbm_redistribute                  1044 15.2    0.339    0.441    0.339    0.441
 dbcsr_multiply_generic              90  8.0    0.003    0.003    0.219    0.440
 pw_axpy                            905  9.3    0.401    0.440    0.401    0.440
 transfer_pw2rs_10                   91 12.0    0.145    0.157    0.387    0.434
 compute_cfm_W_ikp_freq_j            30 10.0    0.001    0.001    0.431    0.432
 mp_cart_create                    3323 14.4    0.402    0.412    0.405    0.415
 dbt_create_matrix                  152  9.0    0.001    0.001    0.393    0.395
 integrate_four_center_load          91 10.0    0.000    0.000    0.329    0.391
 hfx_load_balance                     1 11.0    0.000    0.001    0.329    0.390
 get_Sigma_x                          1  7.0    0.000    0.000    0.388    0.388
 compute_Sigma_x                      1  8.0    0.000    0.000    0.388    0.388
 pw_poisson_rebuild                  91  9.0    0.000    0.000    0.374    0.386
 ps_wavelet_create                    1 10.0    0.000    0.000    0.374    0.386
 RS_z_slice_distribution              1 11.0    0.250    0.272    0.374    0.386
 init_scf_run                         1  3.0    0.000    0.000    0.384    0.384
 update_ks_atom                      91  8.0    0.033    0.052    0.359    0.384
 check_sparsity_3c                    1  7.0    0.000    0.000    0.382    0.382
 hfx_load_balance_range               1 12.0    0.000    0.000    0.315    0.376
 scf_env_initial_rho_setup            1  4.0    0.000    0.000    0.374    0.374
 mp_comm_split_direct              1560 17.2    0.369    0.370    0.369    0.371
 dbt_distribution_new_expert        316 10.5    0.002    0.002    0.365    0.365
 multiply_cannon                     90  9.0    0.005    0.005    0.121    0.343
 G_occ_vir                          121  8.0    0.001    0.005    0.293    0.336
 multiply_cannon_loop                90 10.0    0.005    0.006    0.105    0.326
 mp_max_d                            97  7.0    0.242    0.324    0.242    0.324
 self_consistency_check              90  5.0    0.000    0.000    0.242    0.323
 cp_sm_mix                           90  6.0    0.000    0.000    0.241    0.323
 reshape_mm_compatible              466 14.4    0.005    0.005    0.318    0.321
 qs_energies_init_hamiltonians        1  3.0    0.000    0.000    0.317    0.317
 build_core_hamiltonian_matrix        1  4.0    0.000    0.000    0.314    0.314
 overlap_condnum                      1  5.0    0.000    0.000    0.312    0.313
 multiply_cannon_metrocomm3        1800 11.0    0.002    0.003    0.075    0.306
 arnoldi_conjugate_gradient           5  6.0    0.006    0.007    0.293    0.293
 dbt_tas_mm_3N                       58 15.5    0.000    0.000    0.243    0.282
 change_split                       699 14.9    0.002    0.002    0.272    0.275
 scale_and_distribute               182 10.0    0.080    0.272    0.080    0.272
 Vh_1c_gg_integrals                  91  8.0    0.016    0.172    0.236    0.270
 fft_wrap_pw1pw2_30                 182 10.5    0.005    0.006    0.245    0.261
 multiply_fm_W_MIC_time_with_Mi       2  9.0    0.000    0.000    0.260    0.260
 dbt_copy                           444 10.1    0.002    0.003    0.205    0.257
 pw_zero                            542 10.3    0.239    0.251    0.239    0.251
 mp_alltoall_i22                    906 10.3    0.173    0.237    0.173    0.237
 dbt_reshape                        268 10.9    0.064    0.072    0.171    0.221
 dbt_tas_mm_1N                      120 15.5    0.000    0.000    0.165    0.202
 mp_max_i                          1015  6.7    0.172    0.199    0.172    0.199
 qs_init_subsys                       1  2.0    0.002    0.002    0.195    0.196
 qs_env_setup                         1  3.0    0.000    0.000    0.190    0.191
 compute_QP_energies                  1  7.0    0.000    0.000    0.191    0.191
 qs_env_rebuild_pw_env                2  3.5    0.000    0.000    0.189    0.191
 pw_env_rebuild                       1  5.0    0.000    0.000    0.189    0.191
 dbt_tas_mm_3T                      114 15.5    0.000    0.000    0.149    0.182
 dbcsr_sym_matrix_vector_mult      1935  7.0    0.014    0.015    0.169    0.178
 mp_comm_dup                       1329 17.6    0.169    0.175    0.170    0.176
 hybrid_alltoall_any                470 10.9    0.002    0.002    0.160    0.165
 pw_grid_setup                        4  6.0    0.000    0.000    0.160    0.161
 pw_grid_setup_internal               4  7.0    0.002    0.003    0.160    0.161
 to_ikp_and_mo                       62  8.0    0.000    0.000    0.155    0.155
 fm_Gamma_ao_to_cfm_ikp_mo           62  9.0    0.000    0.000    0.150    0.153
 cp_fm_power                          3  8.7    0.001    0.001    0.152    0.152
 create_qs_kind_set                   1  2.0    0.000    0.000    0.152    0.152
 read_qs_kind                         5  3.0    0.071    0.085    0.152    0.152
 fft_wrap_pw1pw2_10                 182 10.5    0.001    0.002    0.144    0.148
 dbt_tas_replicate                  466 14.4    0.028    0.033    0.139    0.148
 mp_waitall_2                      2541 16.2    0.105    0.147    0.105    0.147
 dbt_create_new                     158 10.0    0.001    0.002    0.141    0.141
 mp_irecv_dv                      25731 13.9    0.017    0.140    0.017    0.140
 multiply_cannon_metrocomm1        1800 11.0    0.001    0.001    0.009    0.138
 multiply_cannon_metrocomm4        1710 11.0    0.003    0.003    0.009    0.134
 cp_fm_redistribute_end              96  8.1    0.067    0.132    0.067    0.132
 mp_cart_sub                        584 10.3    0.131    0.132    0.131    0.132
 check_for_restart_files              1  7.0    0.098    0.131    0.098    0.131
 dbcsr_add_d                       3876  8.0    0.002    0.002    0.043    0.130
 dbcsr_add_anytype                 3876  9.0    0.005    0.019    0.041    0.128
 mp_alltoall_i                     1711 14.4    0.112    0.128    0.112    0.128
 calculate_rho0_atom                455  9.0    0.120    0.123    0.120    0.123
 fill_fm_Sigma_c_Gamma_time           1  8.0    0.000    0.000    0.117    0.117
 dbt_communicate_buffer             268 11.9    0.002    0.002    0.070    0.116
 pw_grid_sort                         4  8.0    0.081    0.084    0.110    0.114
 setup_time_and_frequency_minim       1  7.0    0.000    0.000    0.100    0.108
 dbt_tas_communicate_buffer         932 16.7    0.013    0.015    0.076    0.101
 dbcsr_finalize                    7376 11.3    0.014    0.027    0.056    0.101
 dbt_tas_merge                      174 14.2    0.014    0.016    0.064    0.085
 cp_cfm_cholesky_decompose           35 10.7    0.083    0.085    0.083    0.085
 cp_fm_symm                          90  7.0    0.077    0.084    0.077    0.084
 parser_read_line                 31377  4.0    0.005    0.005    0.081    0.083
 compute_fm_chi_Gamma_freq           30 10.0    0.000    0.000    0.077    0.081
 dbt_tas_reshape                    466 15.0    0.003    0.004    0.072    0.079
 parser_read_line_low                46  5.0    0.002    0.024    0.076    0.078
 rs_scatter_matrices                 91  7.0    0.001    0.001    0.076    0.078
 dbt_pgrid_create_expert            320 11.5    0.001    0.001    0.075    0.078
 dos_pdos_ldos                        1  5.0    0.000    0.000    0.049    0.077
 broadcast_input_information         46  6.0    0.007    0.008    0.074    0.077
 pw_scale                           361  9.5    0.049    0.075    0.049    0.075
 mp_isendrecv_dv                  28756 12.0    0.041    0.074    0.041    0.074
 make_m2s                           180  9.0    0.003    0.003    0.067    0.070
 mp_irecv_dm3                      3288 11.5    0.010    0.069    0.010    0.069
 cp_cfm_cholesky_invert              31 11.0    0.066    0.069    0.066    0.069
 mp_send_dv                         126 10.9    0.002    0.068    0.002    0.068
 dbcsr_col_vec_to_rep_row          1935  8.0    0.006    0.007    0.059    0.067
 cp_cfm_geeig                         2  7.0    0.000    0.000    0.066    0.066
 mp_rank_compare                   1902 13.0    0.055    0.061    0.055    0.061
 dbt_tas_mp_comm                    233 12.9    0.001    0.001    0.057    0.059
 dbcsr_rep_row_to_rep_col_vec      1935  8.0    0.005    0.005    0.036    0.059
 integrate_four_center_dist_KS       91 10.0    0.007    0.008    0.056    0.058
 dbt_tas_merge_communicate_buff     174 15.2    0.001    0.001    0.035    0.055
 integrate_four_center_getP          91 10.0    0.007    0.008    0.052    0.055
 mp_sum_i                           626 14.2    0.052    0.053    0.052    0.053
 mp_bcast_i_src                     184  7.0    0.044    0.052    0.044    0.052
 vxc_of_r_new                       360  9.0    0.001    0.008    0.006    0.051
 write_mo_set_to_restart             90  5.0    0.001    0.043    0.037    0.051
 create_and_init_bs_env               1  5.0    0.000    0.000    0.049    0.049
 dbcsr_iterator_start             29736  9.3    0.026    0.036    0.032    0.047
 scf_post_calculation_gpw             1  3.0    0.000    0.000    0.046    0.046
 write_available_results              1  4.0    0.000    0.000    0.046    0.046
 write_mo_free_results                1  5.0    0.004    0.005    0.046    0.046
 dbcsr_merge_all                   5339 12.5    0.020    0.035    0.027    0.045
 mp_bcast_dv                       1937  9.0    0.037    0.045    0.037    0.045
 dbm_reserve_blocks                2351 15.6    0.039    0.044    0.039    0.044
 dbt_tas_replicate_communicate_     292 15.5    0.001    0.001    0.032    0.042
 dbt_tas_reserve_blocks_index      1885 14.6    0.002    0.002    0.034    0.039
 dbm_add                            466 14.4    0.032    0.039    0.032    0.039
 dbt_tas_replicate_alltoall         292 15.5    0.000    0.000    0.030    0.038
 get_l_sq_wghts_cos_tf_t_to_w         1  8.0    0.035    0.038    0.035    0.038
 dbt_tas_reshape_alltoall           466 16.0    0.000    0.000    0.030    0.037
 get_l_sq_wghts_sin_tf_t_to_w         1  8.0    0.034    0.036    0.034    0.036
 write_mo_set_low                     5  6.0    0.000    0.000    0.035    0.036
 make_images                        180 10.0    0.005    0.005    0.032    0.034
 dbcsr_work_create                 6169 11.4    0.011    0.022    0.016    0.034
 get_l_sq_wghts_cos_tf_w_to_t         1  8.0    0.030    0.032    0.031    0.034
 dbt_nd_mp_comm                     152 10.0    0.000    0.000    0.030    0.032
 cp_fm_redistribute_start            96  8.1    0.005    0.005    0.020    0.032
 sort_shells                          4  9.0    0.029    0.032    0.029    0.032
 restraint_control                    1  2.0    0.000    0.000    0.031    0.032
 write_dos_pdos                       2  6.0    0.000    0.032    0.000    0.032
 build_3c_integrals_put_dbcsr      3375 10.6    0.009    0.031    0.009    0.031
 xc_pw_smooth                        90 10.0    0.000    0.000    0.027    0.029
 mixing_init                          1  5.0    0.026    0.029    0.028    0.029
 mp_bcast_am_src                     46  7.0    0.022    0.027    0.022    0.028
 mp_bcast_b_src                     186  7.6    0.019    0.028    0.019    0.028
 dbt_tas_copy                       146 11.6    0.016    0.018    0.025    0.028
 offload_free_buffer                 99  8.5    0.018    0.028    0.018    0.028
 local_dbt_to_global_mat             91  8.0    0.000    0.000    0.025    0.027
 dbt_reserve_blocks_index           807 12.3    0.001    0.001    0.023    0.026
 compute_MinvVsqrt_Vsqrt              1  9.0    0.000    0.000    0.026    0.026
 dbcsr_copy                        8672  7.7    0.015    0.016    0.025    0.026
 diagonalize_ks_matrix                1  6.0    0.000    0.000    0.026    0.026
 cp_fm_geeig_canon                    1  7.0    0.000    0.000    0.026    0.026
 compute_max_radius                   1  6.0    0.025    0.026    0.025    0.026
 global_matrix_to_local_matrix      152  9.0    0.001    0.001    0.023    0.026
 RI_2c_integral_mat                   4  9.8    0.000    0.000    0.024    0.025
 mp_maxloc_dv                      1625  1.0    0.021    0.024    0.021    0.024
 dbcsr_iterator_stop              29736  9.3    0.015    0.020    0.018    0.024
 dbcsr_crop_matrix                  540 10.0    0.002    0.002    0.022    0.023
 dbcsr_create_new                 12788  9.3    0.016    0.018    0.022    0.023
 dbcsr_work_destroy_all            6169 12.3    0.008    0.017    0.012    0.023
 make_images_sizes                  180 11.0    0.000    0.000    0.018    0.023
 cp_fm_uplo_to_full                  99  9.1    0.014    0.023    0.014    0.023
 mp_alltoall_i44                    180 12.0    0.018    0.023    0.018    0.023
 hirshfeld_integration                1  6.0    0.001    0.007    0.022    0.022
 alloc_block_3c                     151 10.5    0.007    0.009    0.019    0.022
 dbt_tas_reshape_buffer_obtain      466 16.0    0.014    0.016    0.020    0.021
 allocate_and_fill_fm_ks_fm_s         1  6.0    0.000    0.000    0.021    0.021
 dbt_tas_reshape_communicate_bu     466 16.0    0.001    0.001    0.012    0.019
 dbt_crop                           206 11.0    0.011    0.013    0.016    0.019
 local_matrix_to_global_matrix       91  9.0    0.000    0.000    0.017    0.019
 calculate_hirshfeld_normalizat       1  6.0    0.001    0.006    0.017    0.018
 dbcsr_copy_submatrix               540 11.0    0.002    0.003    0.017    0.018
 pw_grid_remap                        4  8.0    0.003    0.003    0.013    0.017
 mp_recv_dv                        2658 10.9    0.000    0.017    0.000    0.017
 dbcsr_data_new                   60026 11.8    0.010    0.016    0.010    0.016
 dbt_reserve_blocks_index_array     504 12.0    0.001    0.001    0.014    0.016
 dbcsr_data_release               95247 11.4    0.010    0.015    0.010    0.015
 mp_sum_im3                           6  9.5    0.011    0.015    0.011    0.015
 mp_bcast_av                        813  1.0    0.004    0.006    0.011    0.015
 pw_grid_assign                       4  8.0    0.013    0.014    0.014    0.014
 mp_comm_free                      6857 13.7    0.014    0.014    0.014    0.014
 dbt_tas_reserve_blocks_templat     612 13.6    0.001    0.001    0.012    0.014
 external_control                    90  5.0    0.000    0.009    0.013    0.014
 delete_unnecessary_files             1  8.0    0.000    0.000    0.000    0.014
 dbcsr_dot                          181  8.0    0.001    0.002    0.012    0.013
 safe_delete                         60  9.0    0.000    0.013    0.000    0.013
 evaluate_core_matrix_traces         90  6.0    0.000    0.000    0.012    0.013
 dbcsr_filter_anytype               735  9.8    0.002    0.002    0.012    0.013
 calculate_ptrace_kp                180  7.0    0.000    0.000    0.012    0.013
 -------------------------------------------------------------------------------

 The number of warnings for this run is : 1
 
 -------------------------------------------------------------------------------
  **** **** ******  **  PROGRAM ENDED AT                 2025-05-29 20:49:07.426
 ***** ** ***  *** **   PROGRAM RAN ON                                  n2cn0167
 **    ****   ******    PROGRAM RAN BY                                  metdyn02
 ***** **    ** ** **   PROGRAM PROCESS ID                               3423147
  **** **  *******  **  PROGRAM STOPPED IN /scratch/hpc-prf-metdyn/metdyn02_Remi
                                           /10_MOL/05_MOL_low_scal/05_MOL/aUKBqs
                                           EOTmq69kFe5R_nOg/5k_set_final_qzvp/DU
                                           QPAH/SZV/1e-4/9.0
