SIRIUS 7.6.1, git hash: https://api.github.com/repos/electronic-structure/SIRIUS/git/ref/tags/v7.6.1
 DBCSR| CPU Multiplication driver                                           XSMM (U)
 DBCSR| Multrec recursion limit                                              512 (U)
 DBCSR| Multiplication stack size                                           1000 (D)
 DBCSR| Maximum elements for images                                    UNLIMITED (U)
 DBCSR| Multiplicative factor virtual images                                   1 (U)
 DBCSR| Use multiplication densification                                       T (D)
 DBCSR| Multiplication size stacks                                             3 (U)
 DBCSR| Use memory pool for CPU allocation                                     F (U)
 DBCSR| Number of 3D layers                                               SINGLE (U)
 DBCSR| Use MPI memory allocation                                              F (U)
 DBCSR| Use RMA algorithm                                                      F (U)
 DBCSR| Use Communication thread                                               T (U)
 DBCSR| Communication thread load                                             60 (D)
 DBCSR| MPI: My process id                                                     0
 DBCSR| MPI: Number of processes                                              80
 DBCSR| OMP: Current number of threads                                         8
 DBCSR| OMP: Max number of threads                                             8
 DBCSR| Split modifier for TAS multiplication algorithm                  1.0E+00 (U)


  **** **** ******  **  PROGRAM STARTED AT               2025-05-05 04:26:04.507
 ***** ** ***  *** **   PROGRAM STARTED ON                 n2cn0552.ab2021.local
 **    ****   ******    PROGRAM STARTED BY                              metdyn02
 ***** **    ** ** **   PROGRAM PROCESS ID                                681145
  **** **  *******  **  PROGRAM STARTED IN /scratch/hpc-prf-metdyn/metdyn02_Remi
                                           /10_MOL/05_MOL/aUKBqsEOTmq69kFe5R_nOg
                                           /5k_set_final_qzvp/TRDMPP01/SZV/GW+BS
                                           E/1e-4

 CP2K| version string:                 CP2K version 2025.1 (Development Version)
 CP2K| source code revision number:                                  git:4803c37
 CP2K| cp2kflags: omp libint fftw3 libxc libgrpp elpa parallel scalapack mpi_f08
 CP2K|             cosma xsmm plumed2 spglib sirius libvori libbqb libvdwxc hdf5
 CP2K| is freely available from                            https://www.cp2k.org/
 CP2K| Program compiled at                         Thu Apr 10 12:05:05 CEST 2025
 CP2K| Program compiled on                                              n2login1
 CP2K| Program compiled for                                                local
 CP2K| Data directory path    /opt/software/pc2/EB-SW/software/CP2K/2024.1-foss-
 CP2K| Input file name                                                    GW.inp

 GLOBAL| Force Environment number                                              1
 GLOBAL| Basis set file name            /scratch/hpc-prf-metdyn/metdyn02_Remi/BA
 GLOBAL| Potential file name            /pc2/groups/hpc-prf-metdyn/metdyn02_Remi
 GLOBAL| MM Potential file name                                     MM_POTENTIAL
 GLOBAL| Coordinate file name                                      __STD_INPUT__
 GLOBAL| Method name                                                        CP2K
 GLOBAL| Project name                                                       MoS2
 GLOBAL| Run type                                                         ENERGY
 GLOBAL| FFT library                                                       FFTW3
 GLOBAL| Diagonalization library                                            ELPA
 GLOBAL| DGEMM library                                                      BLAS
 GLOBAL| Minimum number of eigenvectors for ELPA usage                        16
 GLOBAL| Orthonormality check for eigenvectors                          DISABLED
 GLOBAL| Matrix multiplication library                                     COSMA
 GLOBAL| All-to-all communication in single precision                          F
 GLOBAL| FFTs using library dependent lengths                                  F
 GLOBAL| Grid backend                                                       AUTO
 GLOBAL| Global print level                                               MEDIUM
 GLOBAL| MPI I/O enabled                                                       T
 GLOBAL| Total number of message passing processes                            80
 GLOBAL| Number of threads for this process                                    8
 GLOBAL| This output is from process                                           0
 GLOBAL| OpenMP stack size per thread (OMP_STACKSIZE)                    default
 GLOBAL| CPU model name                          AMD EPYC 7763 64-Core Processor
 GLOBAL| CPUID                                                              1002

 MEMORY| system memory details [Kb]
 MEMORY|                        rank 0           min           max       average
 MEMORY| MemTotal            263899260     263899252     263899264     263899261
 MEMORY| MemFree             250687284     247347148     255093368     250775706
 MEMORY| Buffers                 62756         26232        259544        172073
 MEMORY| Cached                6361296       4032076       9596796       5877221
 MEMORY| Slab                  2297952       1484588       2558604       2231130
 MEMORY| SReclaimable           384784        217864        703400        392878
 MEMORY| MemLikelyFree       257496120     256493972     259393576     257217878


 *** Fundamental physical constants (SI units) ***

 *** Literature: B. J. Mohr and B. N. Taylor,
 ***             CODATA recommended values of the fundamental physical
 ***             constants: 2006, Web Version 5.1
 ***             http://physics.nist.gov/constants

 Speed of light in vacuum [m/s]                             2.99792458000000E+08
 Magnetic constant or permeability of vacuum [N/A**2]       1.25663706143592E-06
 Electric constant or permittivity of vacuum [F/m]          8.85418781762039E-12
 Planck constant (h) [J*s]                                  6.62606896000000E-34
 Planck constant (h-bar) [J*s]                              1.05457162825177E-34
 Elementary charge [C]                                      1.60217648700000E-19
 Electron mass [kg]                                         9.10938215000000E-31
 Electron g factor [ ]                                     -2.00231930436220E+00
 Proton mass [kg]                                           1.67262163700000E-27
 Fine-structure constant                                    7.29735253760000E-03
 Rydberg constant [1/m]                                     1.09737315685270E+07
 Avogadro constant [1/mol]                                  6.02214179000000E+23
 Boltzmann constant [J/K]                                   1.38065040000000E-23
 Atomic mass unit [kg]                                      1.66053878200000E-27
 Bohr radius [m]                                            5.29177208590000E-11

 *** Conversion factors ***

 [u] -> [a.u.]                                              1.82288848426455E+03
 [Angstrom] -> [Bohr] = [a.u.]                              1.88972613288564E+00
 [a.u.] = [Bohr] -> [Angstrom]                              5.29177208590000E-01
 [a.u.] -> [s]                                              2.41888432650478E-17
 [a.u.] -> [fs]                                             2.41888432650478E-02
 [a.u.] -> [J]                                              4.35974393937059E-18
 [a.u.] -> [N]                                              8.23872205491840E-08
 [a.u.] -> [K]                                              3.15774647902944E+05
 [a.u.] -> [kJ/mol]                                         2.62549961709828E+03
 [a.u.] -> [kcal/mol]                                       6.27509468713739E+02
 [a.u.] -> [Pa]                                             2.94210107994716E+13
 [a.u.] -> [bar]                                            2.94210107994716E+08
 [a.u.] -> [atm]                                            2.90362800883016E+08
 [a.u.] -> [eV]                                             2.72113838565563E+01
 [a.u.] -> [Hz]                                             6.57968392072181E+15
 [a.u.] -> [1/cm] (wave numbers)                            2.19474631370540E+05
 [a.u./Bohr**2] -> [1/cm]                                   5.14048714338585E+03
 

 CELL_TOP| Volume [angstrom^3]:                                     27000.000000
 CELL_TOP| Vector a [angstrom    30.000     0.000     0.000   |a| =    30.000000
 CELL_TOP| Vector b [angstrom     0.000    30.000     0.000   |b| =    30.000000
 CELL_TOP| Vector c [angstrom     0.000     0.000    30.000   |c| =    30.000000
 CELL_TOP| Angle (b,c), alpha [degree]:                                90.000000
 CELL_TOP| Angle (a,c), beta  [degree]:                                90.000000
 CELL_TOP| Angle (a,b), gamma [degree]:                                90.000000
 CELL_TOP| Numerically orthorhombic:                                         YES
 CELL_TOP| Periodicity                                                      NONE

 GENERATE|  Preliminary Number of Bonds generated:                             0
 GENERATE|  Achieved consistency in connectivity generation.

 CELL| Volume [angstrom^3]:                                         27000.000000
 CELL| Vector a [angstrom]:      30.000     0.000     0.000   |a| =    30.000000
 CELL| Vector b [angstrom]:       0.000    30.000     0.000   |b| =    30.000000
 CELL| Vector c [angstrom]:       0.000     0.000    30.000   |c| =    30.000000
 CELL| Angle (b,c), alpha [degree]:                                    90.000000
 CELL| Angle (a,c), beta  [degree]:                                    90.000000
 CELL| Angle (a,b), gamma [degree]:                                    90.000000
 CELL| Numerically orthorhombic:                                             YES
 CELL| Periodicity                                                          NONE

 CELL_REF| Volume [angstrom^3]:                                     27000.000000
 CELL_REF| Vector a [angstrom    30.000     0.000     0.000   |a| =    30.000000
 CELL_REF| Vector b [angstrom     0.000    30.000     0.000   |b| =    30.000000
 CELL_REF| Vector c [angstrom     0.000     0.000    30.000   |c| =    30.000000
 CELL_REF| Angle (b,c), alpha [degree]:                                90.000000
 CELL_REF| Angle (a,c), beta  [degree]:                                90.000000
 CELL_REF| Angle (a,b), gamma [degree]:                                90.000000
 CELL_REF| Numerically orthorhombic:                                         YES
 CELL_REF| Periodicity                                                      NONE

 *******************************************************************************
 *******************************************************************************
 **                                                                           **
 **     #####                         ##              ##                      **
 **    ##   ##            ##          ##              ##                      **
 **   ##     ##                       ##            ######                    **
 **   ##     ##  ##   ##  ##   #####  ##  ##   ####   ##    #####    #####    **
 **   ##     ##  ##   ##  ##  ##      ## ##   ##      ##   ##   ##  ##   ##   **
 **   ##  ## ##  ##   ##  ##  ##      ####     ###    ##   ######   ######    **
 **    ##  ###   ##   ##  ##  ##      ## ##      ##   ##   ##       ##        **
 **     #######   #####   ##   #####  ##  ##  ####    ##    #####   ##        **
 **           ##                                                    ##        **
 **                                                                           **
 **                                                ... make the atoms dance   **
 **                                                                           **
 **            Copyright (C) by CP2K developers group (2000-2025)             **
 **                      J. Chem. Phys. 152, 194103 (2020)                    **
 **                                                                           **
 *******************************************************************************

 DFT| Spin restricted Kohn-Sham (RKS) calculation                            RKS
 DFT| Multiplicity                                                             1
 DFT| Number of spin states                                                    1
 DFT| Charge                                                                   0
 DFT| Self-interaction correction (SIC)                                       NO
 DFT| Cutoffs: density                                              1.000000E-10
 DFT|          gradient                                             1.000000E-10
 DFT|          tau                                                  1.000000E-10
 DFT|          cutoff_smoothing_range                               0.000000E+00
 DFT| XC density smoothing                                                  NONE
 DFT| XC derivatives                                                          PW

 FUNCTIONAL| PBE:
 FUNCTIONAL| J.P.Perdew, K.Burke, M.Ernzerhof, Phys. Rev. Letter, vol. 77, n 18,
 FUNCTIONAL|  pp. 3865-3868, (1996)sx=0.750sc=1.000{spin unpolarized}           


 QS| Method:                                                                GAPW
 QS| Density plane wave grid type                        NON-SPHERICAL FULLSPACE
 QS| Number of grid levels:                                                    4
 QS| Density cutoff [a.u.]:                                                250.0
 QS| Multi grid cutoff [a.u.]: 1) grid level                               250.0
 QS|                           2) grid level                                83.3
 QS|                           3) grid level                                27.8
 QS|                           4) grid level                                 9.3
 QS| Grid level progression factor:                                          3.0
 QS| Relative density cutoff [a.u.]:                                        50.0
 QS| Interaction thresholds: eps_pgf_orb:                                1.0E-12
 QS|                         eps_filter_matrix:                          0.0E+00
 QS|                         eps_core_charge:                            1.0E-14
 QS|                         eps_rho_gspace:                             1.0E-12
 QS|                         eps_rho_rspace:                             1.0E-12
 QS|                         eps_gvg_rspace:                             1.0E-06
 QS|                         eps_ppl:                                    1.0E-02
 QS|                         eps_ppnl:                                   1.0E-08
 QS| GAPW|      One center basis from orbital basis primitives
 QS| GAPW|                   eps_fit:                                    1.0E-04
 QS| GAPW|                   eps_iso:                                    1.0E-12
 QS| GAPW|                   eps_svd:                                    1.0E-08
 QS| GAPW|                   eps_cpc:                                    1.0E-12
 QS| GAPW|   atom-r-grid: quadrature:                                     GC_LOG
 QS| GAPW|      atom-s-grid:  max l :                                          4
 QS| GAPW|      max_l_rho0 :                                                   2


 ATOMIC KIND INFORMATION

  1. Atomic kind: C                                     Number of atoms:       6

     Orbital Basis Set                                         aug-SZV-MOLOPT-ae

       Number of orbital shell sets:                                           2
       Number of orbital shells:                                               6
       Number of primitive Cartesian functions:                               13
       Number of Cartesian basis functions:                                   15
       Number of spherical basis functions:                                   14
       Norm type:                                                              2

       Normalised Cartesian orbitals:

                        Set   Shell   Orbital            Exponent    Coefficient

                          1       1    2s                0.070000       0.000000
                                                         0.143687       0.040037
                                                         0.313471       0.177689
                                                         0.721783       0.139661
                                                         1.876046      -0.038599
                                                         6.036200      -0.128975
                                                        30.497239      -0.122578

                          1       2    3s                0.070000      -0.142268
                                                         0.143687       0.288819
                                                         0.313471       0.010360
                                                         0.721783       0.175994
                                                         1.876046       0.000000
                                                         6.036200       0.000000
                                                        30.497239       0.000000

                          1       3    3px               0.070000       0.000000
                                                         0.143687       0.012825
                                                         0.313471       0.142381
                                                         0.721783       0.396426
                                                         1.876046       0.544234
                                                         6.036200       0.508157
                                                        30.497239       0.384077
                          1       3    3py               0.070000       0.000000
                                                         0.143687       0.012825
                                                         0.313471       0.142381
                                                         0.721783       0.396426
                                                         1.876046       0.544234
                                                         6.036200       0.508157
                                                        30.497239       0.384077
                          1       3    3pz               0.070000       0.000000
                                                         0.143687       0.012825
                                                         0.313471       0.142381
                                                         0.721783       0.396426
                                                         1.876046       0.544234
                                                         6.036200       0.508157
                                                        30.497239       0.384077

                          1       4    4px               0.070000       0.076505
                                                         0.143687      -0.086104
                                                         0.313471       0.010230
                                                         0.721783       0.129894
                                                         1.876046       0.000000
                                                         6.036200       0.000000
                                                        30.497239       0.000000
                          1       4    4py               0.070000       0.076505
                                                         0.143687      -0.086104
                                                         0.313471       0.010230
                                                         0.721783       0.129894
                                                         1.876046       0.000000
                                                         6.036200       0.000000
                                                        30.497239       0.000000
                          1       4    4pz               0.070000       0.076505
                                                         0.143687      -0.086104
                                                         0.313471       0.010230
                                                         0.721783       0.129894
                                                         1.876046       0.000000
                                                         6.036200       0.000000
                                                        30.497239       0.000000

                          1       5    4dx2              0.070000       0.004316
                                                         0.143687       0.012639
                                                         0.313471       0.125057
                                                         0.721783       0.080411
                                                         1.876046       0.000000
                                                         6.036200       0.000000
                                                        30.497239       0.000000
                          1       5    4dxy              0.070000       0.007476
                                                         0.143687       0.021892
                                                         0.313471       0.216606
                                                         0.721783       0.139276
                                                         1.876046       0.000000
                                                         6.036200       0.000000
                                                        30.497239       0.000000
                          1       5    4dxz              0.070000       0.007476
                                                         0.143687       0.021892
                                                         0.313471       0.216606
                                                         0.721783       0.139276
                                                         1.876046       0.000000
                                                         6.036200       0.000000
                                                        30.497239       0.000000
                          1       5    4dy2              0.070000       0.004316
                                                         0.143687       0.012639
                                                         0.313471       0.125057
                                                         0.721783       0.080411
                                                         1.876046       0.000000
                                                         6.036200       0.000000
                                                        30.497239       0.000000
                          1       5    4dyz              0.070000       0.007476
                                                         0.143687       0.021892
                                                         0.313471       0.216606
                                                         0.721783       0.139276
                                                         1.876046       0.000000
                                                         6.036200       0.000000
                                                        30.497239       0.000000
                          1       5    4dz2              0.070000       0.004316
                                                         0.143687       0.012639
                                                         0.313471       0.125057
                                                         0.721783       0.080411
                                                         1.876046       0.000000
                                                         6.036200       0.000000
                                                        30.497239       0.000000

                          2       1    1s              742.737049       0.929185
                                                       136.180025       1.402437
                                                        38.098264       1.841991
                                                        13.087782       1.817278
                                                         5.082369       1.004768
                                                         2.093200       0.161650

     RI Auxiliary Basis Set             RI_aug-SZV-MOLOPT-ae_N_RI_048_s_p_d_f_g_

       Number of orbital shell sets:                                          14
       Number of orbital shells:                                              14
       Number of primitive Cartesian functions:                               14
       Number of Cartesian basis functions:                                   62
       Number of spherical basis functions:                                   48
       Norm type:                                                              2

       Normalised Cartesian orbitals:

                        Set   Shell   Orbital            Exponent    Coefficient

                          1       1    1s                0.182132       0.198701

                          2       1    7px               0.213594       0.206979
                          2       1    7py               0.213594       0.206979
                          2       1    7pz               0.213594       0.206979

                          3       1   10dx2              0.381125       0.304282
                          3       1   10dxy              0.381125       0.527033
                          3       1   10dxz              0.381125       0.527033
                          3       1   10dy2              0.381125       0.304282
                          3       1   10dyz              0.381125       0.527033
                          3       1   10dz2              0.381125       0.304282

                          4       1    2s                0.433905       0.381027

                          5       1   12fx3              0.524446       0.344573
                          5       1   12fx2y             0.524446       0.770488
                          5       1   12fx2z             0.524446       0.770488
                          5       1   12fxy2             0.524446       0.770488
                          5       1   12fxyz             0.524446       1.334524
                          5       1   12fxz2             0.524446       0.770488
                          5       1   12fy3              0.524446       0.344573
                          5       1   12fy2z             0.524446       0.770488
                          5       1   12fyz2             0.524446       0.770488
                          5       1   12fz3              0.524446       0.344573

                          6       1    8px               0.915857       1.277099
                          6       1    8py               0.915857       1.277099
                          6       1    8pz               0.915857       1.277099

                          7       1   14gx4              1.217666       1.912659
                          7       1   14gx3y             1.217666       5.060419
                          7       1   14gx3z             1.217666       5.060419
                          7       1   14gx2y2            1.217666       6.532973
                          7       1   14gx2yz            1.217666      11.315442
                          7       1   14gx2z2            1.217666       6.532973
                          7       1   14gxy3             1.217666       5.060419
                          7       1   14gxy2z            1.217666      11.315442
                          7       1   14gxyz2            1.217666      11.315442
                          7       1   14gxz3             1.217666       5.060419
                          7       1   14gy4              1.217666       1.912659
                          7       1   14gy3z             1.217666       5.060419
                          7       1   14gy2z2            1.217666       6.532973
                          7       1   14gyz3             1.217666       5.060419
                          7       1   14gz4              1.217666       1.912659

                          8       1   11dx2              1.581488       3.670921
                          8       1   11dxy              1.581488       6.358221
                          8       1   11dxz              1.581488       6.358221
                          8       1   11dy2              1.581488       3.670921
                          8       1   11dyz              1.581488       6.358221
                          8       1   11dz2              1.581488       3.670921

                          9       1    3s                1.620693       1.023730

                         10       1   13fx3              2.677157      13.496481
                         10       1   13fx2y             2.677157      30.179050
                         10       1   13fx2z             2.677157      30.179050
                         10       1   13fxy2             2.677157      30.179050
                         10       1   13fxyz             2.677157      52.271648
                         10       1   13fxz2             2.677157      30.179050
                         10       1   13fy3              2.677157      13.496481
                         10       1   13fy2z             2.677157      30.179050
                         10       1   13fyz2             2.677157      30.179050
                         10       1   13fz3              2.677157      13.496481

                         11       1    4s                5.999661       2.732154

                         12       1    9px               9.284861      23.102519
                         12       1    9py               9.284861      23.102519
                         12       1    9pz               9.284861      23.102519

                         13       1    5s               22.224963       7.295262

                         14       1    6s               82.329769      19.479498

       Atomic covalent radius [Angstrom]:                                  0.770

       Atomic van der Waals radius [Angstrom]:                             1.700

     The atoms of this atomic kind are PAW atoms (GAPW):
       Hard Gaussian function radius:                                      1.512
       Rho0 radius:                                                        1.512
       Maximum GTO radius used for PAW projector construction:            24.566

     GAPW Soft Basis Set                                  aug-SZV-MOLOPT-ae_soft

       Number of orbital shell sets:                                           2
       Number of orbital shells:                                               6
       Number of primitive Cartesian functions:                                6
       Number of Cartesian basis functions:                                   15
       Number of spherical basis functions:                                   14
       Norm type:                                                              2

       Normalised Cartesian orbitals:

                        Set   Shell   Orbital            Exponent    Coefficient

                          1       1    2s                0.070000       0.000000
                                                         0.143687       0.040037
                                                         0.313471       0.177689
                                                         0.721783       0.139661
                                                         1.876046      -0.038599

                          1       2    3s                0.070000      -0.142268
                                                         0.143687       0.288819
                                                         0.313471       0.010360
                                                         0.721783       0.175994
                                                         1.876046       0.000000

                          1       3    3px               0.070000       0.000000
                                                         0.143687       0.012825
                                                         0.313471       0.142381
                                                         0.721783       0.396426
                                                         1.876046       0.544234
                          1       3    3py               0.070000       0.000000
                                                         0.143687       0.012825
                                                         0.313471       0.142381
                                                         0.721783       0.396426
                                                         1.876046       0.544234
                          1       3    3pz               0.070000       0.000000
                                                         0.143687       0.012825
                                                         0.313471       0.142381
                                                         0.721783       0.396426
                                                         1.876046       0.544234

                          1       4    4px               0.070000       0.076505
                                                         0.143687      -0.086104
                                                         0.313471       0.010230
                                                         0.721783       0.129894
                                                         1.876046       0.000000
                          1       4    4py               0.070000       0.076505
                                                         0.143687      -0.086104
                                                         0.313471       0.010230
                                                         0.721783       0.129894
                                                         1.876046       0.000000
                          1       4    4pz               0.070000       0.076505
                                                         0.143687      -0.086104
                                                         0.313471       0.010230
                                                         0.721783       0.129894
                                                         1.876046       0.000000

                          1       5    4dx2              0.070000       0.004316
                                                         0.143687       0.012639
                                                         0.313471       0.125057
                                                         0.721783       0.080411
                                                         1.876046       0.000000
                          1       5    4dxy              0.070000       0.007476
                                                         0.143687       0.021892
                                                         0.313471       0.216606
                                                         0.721783       0.139276
                                                         1.876046       0.000000
                          1       5    4dxz              0.070000       0.007476
                                                         0.143687       0.021892
                                                         0.313471       0.216606
                                                         0.721783       0.139276
                                                         1.876046       0.000000
                          1       5    4dy2              0.070000       0.004316
                                                         0.143687       0.012639
                                                         0.313471       0.125057
                                                         0.721783       0.080411
                                                         1.876046       0.000000
                          1       5    4dyz              0.070000       0.007476
                                                         0.143687       0.021892
                                                         0.313471       0.216606
                                                         0.721783       0.139276
                                                         1.876046       0.000000
                          1       5    4dz2              0.070000       0.004316
                                                         0.143687       0.012639
                                                         0.313471       0.125057
                                                         0.721783       0.080411
                                                         1.876046       0.000000

                          2       1    1s                2.093200       0.161650

     AE Potential information for                                            ALL

       Description:                                       All-electron potential
                                          Krack, Parrinello, PCCP 2, 2105 (2000)

       Gaussian exponent of the core charge distribution:               4.109048
       Electronic configuration (s p d ...):                           4   2   0

  2. Atomic kind: H                                     Number of atoms:      10

     Orbital Basis Set                                         aug-SZV-MOLOPT-ae

       Number of orbital shell sets:                                           1
       Number of orbital shells:                                               4
       Number of primitive Cartesian functions:                                7
       Number of Cartesian basis functions:                                    6
       Number of spherical basis functions:                                    6
       Norm type:                                                              2

       Normalised Cartesian orbitals:

                        Set   Shell   Orbital            Exponent    Coefficient

                          1       1    1s                0.065428       0.000000
                                                         0.100112       0.016532
                                                         0.243077       0.102760
                                                         0.625955       0.185857
                                                         1.822143       0.188385
                                                         6.513144       0.143430
                                                        35.523221       0.095030

                          1       2    2s                0.065428       0.083549
                                                         0.100112       0.009605
                                                         0.243077       0.002524
                                                         0.625955       0.013457
                                                         1.822143       0.000000
                                                         6.513144       0.000000
                                                        35.523221       0.000000

                          1       3    3s                0.065428       0.037407
                                                         0.100112      -0.169070
                                                         0.243077      -0.018899
                                                         0.625955       0.012806
                                                         1.822143       0.000000
                                                         6.513144       0.000000
                                                        35.523221       0.000000

                          1       4    2px               0.065428       0.059908
                                                         0.100112      -0.023770
                                                         0.243077       0.000032
                                                         0.625955       0.017779
                                                         1.822143       0.000000
                                                         6.513144       0.000000
                                                        35.523221       0.000000
                          1       4    2py               0.065428       0.059908
                                                         0.100112      -0.023770
                                                         0.243077       0.000032
                                                         0.625955       0.017779
                                                         1.822143       0.000000
                                                         6.513144       0.000000
                                                        35.523221       0.000000
                          1       4    2pz               0.065428       0.059908
                                                         0.100112      -0.023770
                                                         0.243077       0.000032
                                                         0.625955       0.017779
                                                         1.822143       0.000000
                                                         6.513144       0.000000
                                                        35.523221       0.000000

     RI Auxiliary Basis Set             RI_aug-SZV-MOLOPT-ae_N_RI_007_s_p_d_f_g_

       Number of orbital shell sets:                                           5
       Number of orbital shells:                                               5
       Number of primitive Cartesian functions:                                5
       Number of Cartesian basis functions:                                    7
       Number of spherical basis functions:                                    7
       Norm type:                                                              2

       Normalised Cartesian orbitals:

                        Set   Shell   Orbital            Exponent    Coefficient

                          1       1    1s                0.148777       0.170731

                          2       1    5px               0.367452       0.407794
                          2       1    5py               0.367452       0.407794
                          2       1    5pz               0.367452       0.407794

                          3       1    2s                0.510503       0.430437

                          4       1    3s                1.106366       0.768837

                          5       1    4s                5.955292       2.716986

       Atomic covalent radius [Angstrom]:                                  0.320

       Atomic van der Waals radius [Angstrom]:                             1.090

     The atoms of this atomic kind are PAW atoms (GAPW):
       Hard Gaussian function radius:                                      1.200
       Rho0 radius:                                                        1.200
       Maximum GTO radius used for PAW projector construction:            24.566

     GAPW Soft Basis Set                                  aug-SZV-MOLOPT-ae_soft

       Number of orbital shell sets:                                           1
       Number of orbital shells:                                               4
       Number of primitive Cartesian functions:                                6
       Number of Cartesian basis functions:                                    6
       Number of spherical basis functions:                                    6
       Norm type:                                                              2

       Normalised Cartesian orbitals:

                        Set   Shell   Orbital            Exponent    Coefficient

                          1       1    1s                0.065428       0.000000
                                                         0.100112       0.016532
                                                         0.243077       0.102760
                                                         0.625955       0.185857
                                                         1.822143       0.188385
                                                         6.513144       0.000000

                          1       2    2s                0.065428       0.083549
                                                         0.100112       0.009605
                                                         0.243077       0.002524
                                                         0.625955       0.013457
                                                         1.822143       0.000000
                                                         6.513144       0.000000

                          1       3    3s                0.065428       0.037407
                                                         0.100112      -0.169070
                                                         0.243077      -0.018899
                                                         0.625955       0.012806
                                                         1.822143       0.000000
                                                         6.513144       0.000000

                          1       4    2px               0.065428       0.059908
                                                         0.100112      -0.023770
                                                         0.243077       0.000032
                                                         0.625955       0.017779
                                                         1.822143       0.000000
                                                         6.513144       0.000000
                          1       4    2py               0.065428       0.059908
                                                         0.100112      -0.023770
                                                         0.243077       0.000032
                                                         0.625955       0.017779
                                                         1.822143       0.000000
                                                         6.513144       0.000000
                          1       4    2pz               0.065428       0.059908
                                                         0.100112      -0.023770
                                                         0.243077       0.000032
                                                         0.625955       0.017779
                                                         1.822143       0.000000
                                                         6.513144       0.000000

     AE Potential information for                                            ALL

       Description:                                       All-electron potential
                                          Krack, Parrinello, PCCP 2, 2105 (2000)

       Gaussian exponent of the core charge distribution:              12.500000
       Electronic configuration (s p d ...):                           1   0   0

  3. Atomic kind: N                                     Number of atoms:       2

     Orbital Basis Set                                         aug-SZV-MOLOPT-ae

       Number of orbital shell sets:                                           2
       Number of orbital shells:                                               6
       Number of primitive Cartesian functions:                               13
       Number of Cartesian basis functions:                                   15
       Number of spherical basis functions:                                   14
       Norm type:                                                              2

       Normalised Cartesian orbitals:

                        Set   Shell   Orbital            Exponent    Coefficient

                          1       1    1s                0.090000       0.000000
                                                         0.184684       0.048330
                                                         0.402911       0.214496
                                                         0.927724       0.168591
                                                         2.411326      -0.046594
                                                         7.758467      -0.155691
                                                        39.198808      -0.147969

                          1       2    2s                0.090000      -0.118940
                                                         0.184684       0.080942
                                                         0.402911      -0.164238
                                                         0.927724      -0.024406
                                                         2.411326       0.000000
                                                         7.758467       0.000000
                                                        39.198808       0.000000

                          1       3    2px               0.090000       0.000000
                                                         0.184684       0.017552
                                                         0.402911       0.194858
                                                         0.927724       0.542535
                                                         2.411326       0.744820
                                                         7.758467       0.695446
                                                        39.198808       0.525635
                          1       3    2py               0.090000       0.000000
                                                         0.184684       0.017552
                                                         0.402911       0.194858
                                                         0.927724       0.542535
                                                         2.411326       0.744820
                                                         7.758467       0.695446
                                                        39.198808       0.525635
                          1       3    2pz               0.090000       0.000000
                                                         0.184684       0.017552
                                                         0.402911       0.194858
                                                         0.927724       0.542535
                                                         2.411326       0.744820
                                                         7.758467       0.695446
                                                        39.198808       0.525635

                          1       4    3px               0.090000      -0.032237
                                                         0.184684      -0.080882
                                                         0.402911       0.112185
                                                         0.927724       1.067728
                                                         2.411326       0.000000
                                                         7.758467       0.000000
                                                        39.198808       0.000000
                          1       4    3py               0.090000      -0.032237
                                                         0.184684      -0.080882
                                                         0.402911       0.112185
                                                         0.927724       1.067728
                                                         2.411326       0.000000
                                                         7.758467       0.000000
                                                        39.198808       0.000000
                          1       4    3pz               0.090000      -0.032237
                                                         0.184684      -0.080882
                                                         0.402911       0.112185
                                                         0.927724       1.067728
                                                         2.411326       0.000000
                                                         7.758467       0.000000
                                                        39.198808       0.000000

                          1       5    3dx2              0.090000      -0.010633
                                                         0.184684      -0.050923
                                                         0.402911       0.103346
                                                         0.927724      -0.777682
                                                         2.411326       0.000000
                                                         7.758467       0.000000
                                                        39.198808       0.000000
                          1       5    3dxy              0.090000      -0.018417
                                                         0.184684      -0.088201
                                                         0.402911       0.179000
                                                         0.927724      -1.346985
                                                         2.411326       0.000000
                                                         7.758467       0.000000
                                                        39.198808       0.000000
                          1       5    3dxz              0.090000      -0.018417
                                                         0.184684      -0.088201
                                                         0.402911       0.179000
                                                         0.927724      -1.346985
                                                         2.411326       0.000000
                                                         7.758467       0.000000
                                                        39.198808       0.000000
                          1       5    3dy2              0.090000      -0.010633
                                                         0.184684      -0.050923
                                                         0.402911       0.103346
                                                         0.927724      -0.777682
                                                         2.411326       0.000000
                                                         7.758467       0.000000
                                                        39.198808       0.000000
                          1       5    3dyz              0.090000      -0.018417
                                                         0.184684      -0.088201
                                                         0.402911       0.179000
                                                         0.927724      -1.346985
                                                         2.411326       0.000000
                                                         7.758467       0.000000
                                                        39.198808       0.000000
                          1       5    3dz2              0.090000      -0.010633
                                                         0.184684      -0.050923
                                                         0.402911       0.103346
                                                         0.927724      -0.777682
                                                         2.411326       0.000000
                                                         7.758467       0.000000
                                                        39.198808       0.000000

                          2       1    1s             1027.828458       1.185541
                                                       188.451223       1.789359
                                                        52.721861       2.350183
                                                        18.111382       2.318652
                                                         7.033180       1.281976
                                                         2.896652       0.206248

     RI Auxiliary Basis Set             RI_aug-SZV-MOLOPT-ae_N_RI_043_s_p_d_f_g_

       Number of orbital shell sets:                                          15
       Number of orbital shells:                                              15
       Number of primitive Cartesian functions:                               15
       Number of Cartesian basis functions:                                   49
       Number of spherical basis functions:                                   43
       Norm type:                                                              2

       Normalised Cartesian orbitals:

                        Set   Shell   Orbital            Exponent    Coefficient

                          1       1    1s                0.348881       0.323533

                          2       1   12dx2              0.415899       0.354517
                          2       1   12dxy              0.415899       0.614042
                          2       1   12dxz              0.415899       0.614042
                          2       1   12dy2              0.415899       0.354517
                          2       1   12dyz              0.415899       0.614042
                          2       1   12dz2              0.415899       0.354517

                          3       1    7px               0.565430       0.698898
                          3       1    7py               0.565430       0.698898
                          3       1    7pz               0.565430       0.698898

                          4       1    2s                0.604256       0.488456

                          5       1    8px               0.736384       0.972345
                          5       1    8py               0.736384       0.972345
                          5       1    8pz               0.736384       0.972345

                          6       1   15fx3              1.197807       2.209658
                          6       1   15fx2y             1.197807       4.940945
                          6       1   15fx2z             1.197807       4.940945
                          6       1   15fxy2             1.197807       4.940945
                          6       1   15fxyz             1.197807       8.557969
                          6       1   15fxz2             1.197807       4.940945
                          6       1   15fy3              1.197807       2.209658
                          6       1   15fy2z             1.197807       4.940945
                          6       1   15fyz2             1.197807       4.940945
                          6       1   15fz3              1.197807       2.209658

                          7       1   13dx2              1.339145       2.743833
                          7       1   13dxy              1.339145       4.752458
                          7       1   13dxz              1.339145       4.752458
                          7       1   13dy2              1.339145       2.743833
                          7       1   13dyz              1.339145       4.752458
                          7       1   13dz2              1.339145       2.743833

                          8       1    3s                2.115726       1.250273

                          9       1    9px               3.057998       5.764167
                          9       1    9py               3.057998       5.764167
                          9       1    9pz               3.057998       5.764167

                         10       1   14dx2              5.406341      31.549351
                         10       1   14dxy              5.406341      54.645078
                         10       1   14dxz              5.406341      54.645078
                         10       1   14dy2              5.406341      31.549351
                         10       1   14dyz              5.406341      54.645078
                         10       1   14dz2              5.406341      31.549351

                         11       1    4s                8.101925       3.422562

                         12       1   10px               9.242623      22.971223
                         12       1   10py               9.242623      22.971223
                         12       1   10pz               9.242623      22.971223

                         13       1   11px              24.533825      77.829934
                         13       1   11py              24.533825      77.829934
                         13       1   11pz              24.533825      77.829934

                         14       1    5s               30.207474       9.183239

                         15       1    6s              110.078037      24.220639

       Atomic covalent radius [Angstrom]:                                  0.750

       Atomic van der Waals radius [Angstrom]:                             1.550

     The atoms of this atomic kind are PAW atoms (GAPW):
       Hard Gaussian function radius:                                      1.512
       Rho0 radius:                                                        1.512
       Maximum GTO radius used for PAW projector construction:            24.566

     GAPW Soft Basis Set                                  aug-SZV-MOLOPT-ae_soft

       Number of orbital shell sets:                                           2
       Number of orbital shells:                                               6
       Number of primitive Cartesian functions:                                6
       Number of Cartesian basis functions:                                   15
       Number of spherical basis functions:                                   14
       Norm type:                                                              2

       Normalised Cartesian orbitals:

                        Set   Shell   Orbital            Exponent    Coefficient

                          1       1    1s                0.090000       0.000000
                                                         0.184684       0.048330
                                                         0.402911       0.214496
                                                         0.927724       0.168591
                                                         2.411326      -0.046594

                          1       2    2s                0.090000      -0.118940
                                                         0.184684       0.080942
                                                         0.402911      -0.164238
                                                         0.927724      -0.024406
                                                         2.411326       0.000000

                          1       3    2px               0.090000       0.000000
                                                         0.184684       0.017552
                                                         0.402911       0.194858
                                                         0.927724       0.542535
                                                         2.411326       0.744820
                          1       3    2py               0.090000       0.000000
                                                         0.184684       0.017552
                                                         0.402911       0.194858
                                                         0.927724       0.542535
                                                         2.411326       0.744820
                          1       3    2pz               0.090000       0.000000
                                                         0.184684       0.017552
                                                         0.402911       0.194858
                                                         0.927724       0.542535
                                                         2.411326       0.744820

                          1       4    3px               0.090000      -0.032237
                                                         0.184684      -0.080882
                                                         0.402911       0.112185
                                                         0.927724       1.067728
                                                         2.411326       0.000000
                          1       4    3py               0.090000      -0.032237
                                                         0.184684      -0.080882
                                                         0.402911       0.112185
                                                         0.927724       1.067728
                                                         2.411326       0.000000
                          1       4    3pz               0.090000      -0.032237
                                                         0.184684      -0.080882
                                                         0.402911       0.112185
                                                         0.927724       1.067728
                                                         2.411326       0.000000

                          1       5    3dx2              0.090000      -0.010633
                                                         0.184684      -0.050923
                                                         0.402911       0.103346
                                                         0.927724      -0.777682
                                                         2.411326       0.000000
                          1       5    3dxy              0.090000      -0.018417
                                                         0.184684      -0.088201
                                                         0.402911       0.179000
                                                         0.927724      -1.346985
                                                         2.411326       0.000000
                          1       5    3dxz              0.090000      -0.018417
                                                         0.184684      -0.088201
                                                         0.402911       0.179000
                                                         0.927724      -1.346985
                                                         2.411326       0.000000
                          1       5    3dy2              0.090000      -0.010633
                                                         0.184684      -0.050923
                                                         0.402911       0.103346
                                                         0.927724      -0.777682
                                                         2.411326       0.000000
                          1       5    3dyz              0.090000      -0.018417
                                                         0.184684      -0.088201
                                                         0.402911       0.179000
                                                         0.927724      -1.346985
                                                         2.411326       0.000000
                          1       5    3dz2              0.090000      -0.010633
                                                         0.184684      -0.050923
                                                         0.402911       0.103346
                                                         0.927724      -0.777682
                                                         2.411326       0.000000

                          2       1    1s                2.896652       0.206248

     AE Potential information for                                            ALL

       Description:                                       All-electron potential
                                          Krack, Parrinello, PCCP 2, 2105 (2000)

       Gaussian exponent of the core charge distribution:               5.979100
       Electronic configuration (s p d ...):                           4   3   0

  4. Atomic kind: O                                     Number of atoms:       2

     Orbital Basis Set                                         aug-SZV-MOLOPT-ae

       Number of orbital shell sets:                                           2
       Number of orbital shells:                                               6
       Number of primitive Cartesian functions:                               13
       Number of Cartesian basis functions:                                   15
       Number of spherical basis functions:                                   14
       Norm type:                                                              2

       Normalised Cartesian orbitals:

                        Set   Shell   Orbital            Exponent    Coefficient

                          1       1    1s                0.123000       0.000000
                                                         0.245881       0.059902
                                                         0.536420       0.265853
                                                         1.235135       0.208956
                                                         3.210345      -0.057750
                                                        10.329320      -0.192968
                                                        52.187762      -0.183398

                          1       2    2s                0.123000      -0.253465
                                                         0.245881       0.187097
                                                         0.536420       0.063592
                                                         1.235135       0.074938
                                                         3.210345       0.000000
                                                        10.329320       0.000000
                                                        52.187762       0.000000

                          1       3    2px               0.123000       0.000000
                                                         0.245881       0.025102
                                                         0.536420       0.278668
                                                         1.235135       0.775885
                                                         3.210345       1.065175
                                                        10.329320       0.994565
                                                        52.187762       0.751716
                          1       3    2py               0.123000       0.000000
                                                         0.245881       0.025102
                                                         0.536420       0.278668
                                                         1.235135       0.775885
                                                         3.210345       1.065175
                                                        10.329320       0.994565
                                                        52.187762       0.751716
                          1       3    2pz               0.123000       0.000000
                                                         0.245881       0.025102
                                                         0.536420       0.278668
                                                         1.235135       0.775885
                                                         3.210345       1.065175
                                                        10.329320       0.994565
                                                        52.187762       0.751716

                          1       4    3px               0.123000       0.048536
                                                         0.245881       0.257066
                                                         0.536420      -0.539300
                                                         1.235135      -0.153605
                                                         3.210345       0.000000
                                                        10.329320       0.000000
                                                        52.187762       0.000000
                          1       4    3py               0.123000       0.048536
                                                         0.245881       0.257066
                                                         0.536420      -0.539300
                                                         1.235135      -0.153605
                                                         3.210345       0.000000
                                                        10.329320       0.000000
                                                        52.187762       0.000000
                          1       4    3pz               0.123000       0.048536
                                                         0.245881       0.257066
                                                         0.536420      -0.539300
                                                         1.235135      -0.153605
                                                         3.210345       0.000000
                                                        10.329320       0.000000
                                                        52.187762       0.000000

                          1       5    3dx2              0.123000       0.022065
                                                         0.245881       0.038414
                                                         0.536420       0.100211
                                                         1.235135       0.626583
                                                         3.210345       0.000000
                                                        10.329320       0.000000
                                                        52.187762       0.000000
                          1       5    3dxy              0.123000       0.038217
                                                         0.245881       0.066534
                                                         0.536420       0.173571
                                                         1.235135       1.085274
                                                         3.210345       0.000000
                                                        10.329320       0.000000
                                                        52.187762       0.000000
                          1       5    3dxz              0.123000       0.038217
                                                         0.245881       0.066534
                                                         0.536420       0.173571
                                                         1.235135       1.085274
                                                         3.210345       0.000000
                                                        10.329320       0.000000
                                                        52.187762       0.000000
                          1       5    3dy2              0.123000       0.022065
                                                         0.245881       0.038414
                                                         0.536420       0.100211
                                                         1.235135       0.626583
                                                         3.210345       0.000000
                                                        10.329320       0.000000
                                                        52.187762       0.000000
                          1       5    3dyz              0.123000       0.038217
                                                         0.245881       0.066534
                                                         0.536420       0.173571
                                                         1.235135       1.085274
                                                         3.210345       0.000000
                                                        10.329320       0.000000
                                                        52.187762       0.000000
                          1       5    3dz2              0.123000       0.022065
                                                         0.245881       0.038414
                                                         0.536420       0.100211
                                                         1.235135       0.626583
                                                         3.210345       0.000000
                                                        10.329320       0.000000
                                                        52.187762       0.000000

                          2       1    1s             1355.584234       1.459053
                                                       248.544885       2.202176
                                                        69.533902       2.892385
                                                        23.886772       2.853580
                                                         9.275933       1.577736
                                                         3.820341       0.253831

     RI Auxiliary Basis Set             RI_aug-SZV-MOLOPT-ae_N_RI_054_s_p_d_f_g_

       Number of orbital shell sets:                                          18
       Number of orbital shells:                                              18
       Number of primitive Cartesian functions:                               18
       Number of Cartesian basis functions:                                   63
       Number of spherical basis functions:                                   54
       Norm type:                                                              2

       Normalised Cartesian orbitals:

                        Set   Shell   Orbital            Exponent    Coefficient

                          1       1    1s                0.430624       0.378864

                          2       1    8px               0.484961       0.576864
                          2       1    8py               0.484961       0.576864
                          2       1    8pz               0.484961       0.576864

                          3       1   14dx2              0.571732       0.618723
                          3       1   14dxy              0.571732       1.071659
                          3       1   14dxz              0.571732       1.071659
                          3       1   14dy2              0.571732       0.618723
                          3       1   14dyz              0.571732       1.071659
                          3       1   14dz2              0.571732       0.618723

                          4       1    2s                0.852188       0.632138

                          5       1   17fx3              1.068436       1.708592
[...]
 parallel_gemm_fm_cosma             366  9.5    1.628    1.658    1.628    1.658
 xc_functional_eval                 657 10.7    0.001    0.001    1.125    1.655
 pbe_lda_eval                       657 11.7    1.124    1.655    1.124    1.655
 integrate_vhg0_rspace               74  8.0    0.057    0.081    1.642    1.646
 transfer_pw2rs_30                   74 12.0    0.670    0.682    1.208    1.300
 mp_sync                            809  9.5    0.843    1.293    0.843    1.293
 mp_waitall_1                     35430 12.0    1.010    1.285    1.010    1.285
 create_hermitian_form_of_ABBA        1  8.0    0.000    0.000    1.198    1.201
 qs_scf_new_mos                      73  5.0    0.001    0.001    1.063    1.173
 powell_optimize                 763571 11.0    1.101    1.129    1.101    1.129
 calculate_rho_atom                 296  9.0    0.335    1.121    0.335    1.121
 cp_fm_power                          2  7.5    0.022    0.023    1.041    1.046
 calc_screening_functions             1 10.0    0.407    0.418    1.024    1.043
 pw_scatter_p                       808 12.1    1.013    1.041    1.013    1.041
 transfer_rs2pw_90                   74  9.0    0.161    0.186    0.756    1.025
 diagonalize_C                        1  8.0    0.000    0.000    1.005    1.007
 mp_sum_dv                        10472 10.3    0.879    0.922    0.879    0.922
 pw_derive                          660 11.3    0.845    0.863    0.845    0.863
 transfer_rs2pw_30                   74  9.0    0.293    0.308    0.784    0.831
 transfer_pw2rs_90                   74 12.0    0.138    0.163    0.616    0.782
 calc_pair_dist_radii                 1 10.0    0.254    0.258    0.739    0.773
 pw_gather_p                        737 11.8    0.738    0.767    0.738    0.767
 pw_copy                           1105 10.6    0.739    0.767    0.739    0.767
 cp2k_distribution_to_z_slices       74  9.0    0.271    0.304    0.708    0.734
 mp_sum_dm                         4518  7.7    0.644    0.717    0.644    0.717
 mp2_ri_gpw_compute_in                1  5.0    0.000    0.000    0.703    0.703
 mp_sendrecv_dv                   11692 10.0    0.655    0.696    0.655    0.696
 eigensolver_symm                    74  6.0    0.005    0.005    0.677    0.679
 grid_integrate_task_list            74 10.0    0.098    0.678    0.098    0.678
 rs_gather_matrices                  74 10.0    0.002    0.003    0.606    0.672
 mp2_ri_gpw_compute_in_loop           1  6.0    0.000    0.000    0.581    0.581
 rs_grid_zero                       372 11.2    0.513    0.544    0.513    0.544
 pw_copy_to_array                   737 11.8    0.421    0.528    0.421    0.528
 compute_vec_Sigma_x_minus_vxc_       1  4.0    0.000    0.000    0.527    0.527
 pw_poisson_set                      75  8.9    0.001    0.001    0.485    0.493
 contract_B_L                         4  7.0    0.001    0.002    0.383    0.493
 fft_wrap_pw1pw2_90                 148 10.5    0.022    0.023    0.474    0.486
 mp_isend_dv                      12883 11.8    0.191    0.474    0.191    0.474
 rpa_num_int_RPA_matrix_operati     100  7.0    0.000    0.001    0.466    0.466
 pw_copy_from_array                 808 12.1    0.365    0.455    0.365    0.455
 mp2_eri_3c_integrate                 1  7.0    0.001    0.002    0.165    0.402
 integrate_set_3c                  2730  8.0    0.148    0.366    0.164    0.400
 mp_cart_create                     554 10.0    0.281    0.391    0.282    0.392
 calculate_dm_sparse                 73  6.0    0.000    0.000    0.275    0.382
 cp_dbcsr_plus_fm_fm_t               73  7.0    0.001    0.001    0.274    0.382
 dbt_pgrid_create_expert             84 10.8    0.000    0.000    0.262    0.371
 pw_integral_ab_c1d_c1d_gs           74  9.0    0.321    0.324    0.344    0.348
 calc_mat_Q                         100  8.0    0.000    0.000    0.341    0.344
 contract_S_to_Q                    100  9.0    0.000    0.000    0.338    0.342
 pw_axpy                            735  9.3    0.316    0.334    0.316    0.334
 pw_poisson_rebuild                  74  9.0    0.000    0.000    0.318    0.334
 ps_wavelet_create                    1 10.0    0.000    0.000    0.318    0.334
 RS_z_slice_distribution              1 11.0    0.251    0.277    0.318    0.334
 dbcsr_multiply_generic             134  8.1    0.004    0.004    0.222    0.329
 qs_energies_init_hamiltonians        1  3.0    0.000    0.000    0.317    0.317
 build_core_hamiltonian_matrix        1  4.0    0.000    0.000    0.315    0.315
 overlap_condnum                      1  5.0    0.000    0.000    0.312    0.313
 arnoldi_conjugate_gradient           5  6.0    0.006    0.008    0.293    0.293
 transfer_pw2rs_10                   74 12.0    0.117    0.124    0.261    0.277
 transfer_rs2pw_10                   74  9.0    0.073    0.077    0.237    0.260
 calculate_rho_atom_coeff            74  6.0    0.033    0.039    0.259    0.260
 multiply_cannon                    134  9.1    0.006    0.007    0.140    0.246
 multiply_cannon_loop               134 10.1    0.005    0.005    0.124    0.230
 init_scf_run                         1  3.0    0.000    0.000    0.228    0.228
 scf_env_initial_rho_setup            1  4.0    0.000    0.000    0.218    0.218
 self_consistency_check              73  5.0    0.000    0.000    0.117    0.213
 cp_sm_mix                           73  6.0    0.000    0.000    0.117    0.213
 mp_max_d                            75  6.9    0.117    0.213    0.117    0.213
 multiply_cannon_metrocomm3        1616 11.1    0.002    0.002    0.076    0.206
 pw_zero                            440 10.3    0.189    0.202    0.189    0.202
 mp2_main_alloc_hfx                   1  4.0    0.128    0.193    0.128    0.193
 cp_fm_cholesky_decompose           102  9.0    0.152    0.179    0.152    0.179
 qs_init_subsys                       1  2.0    0.001    0.001    0.177    0.177
 dbcsr_sym_matrix_vector_mult      2015  7.0    0.015    0.016    0.169    0.174
 qs_env_setup                         1  3.0    0.000    0.000    0.173    0.174
 qs_env_rebuild_pw_env                2  3.5    0.000    0.000    0.173    0.173
 pw_env_rebuild                       1  5.0    0.000    0.000    0.173    0.173
 update_ks_atom                      74  8.0    0.027    0.037    0.154    0.170
 cp_fm_cholesky_invert              101  8.0    0.165    0.169    0.165    0.169
 Vh_1c_gg_integrals                  74  8.0    0.012    0.158    0.160    0.167
 multiply_cannon_metrocomm1        1616 11.1    0.001    0.001    0.023    0.158
 multiply_cannon_metrocomm4        1482 11.1    0.002    0.003    0.007    0.157
 dbcsr_complete_redistribute        262  8.5    0.009    0.011    0.152    0.156
 pw_grid_setup                        4  6.0    0.000    0.000    0.155    0.156
 pw_grid_setup_internal               4  7.0    0.002    0.003    0.155    0.156
 mp_irecv_dv                      12821 11.8    0.013    0.156    0.013    0.156
 copy_dbcsr_to_fm                   112  6.6    0.001    0.002    0.137    0.143
 mp_bcast_dm                       2960  9.0    0.127    0.134    0.127    0.134
 fft_wrap_pw1pw2_30                 148 10.5    0.004    0.004    0.127    0.130
 mp_sum_i                            19  9.5    0.065    0.129    0.065    0.129
 restraint_control                    1  2.0    0.000    0.000    0.065    0.129
 create_qs_kind_set                   1  2.0    0.000    0.000    0.123    0.123
 read_qs_kind                         4  3.0    0.038    0.075    0.123    0.123
 get_2c_integrals                     1  6.0    0.000    0.000    0.102    0.121
 compute_Erpa_by_freq_int           100  8.0    0.000    0.001    0.118    0.119
 dbt_total                            8  8.0    0.000    0.000    0.114    0.114
 pw_grid_sort                         4  8.0    0.080    0.081    0.109    0.114
 mp2_main_free_hfx                    1  4.0    0.022    0.113    0.022    0.113
 mp_comm_split_direct                48 14.5    0.097    0.109    0.097    0.109
 dbcsr_add_d                       3081  7.0    0.001    0.002    0.019    0.106
 dbcsr_add_anytype                 3081  8.0    0.002    0.013    0.018    0.104
 dbt_contract                         4  9.0    0.000    0.000    0.100    0.101
 write_mo_set_to_restart             73  5.0    0.002    0.073    0.067    0.098
 mp_max_i                           587  2.9    0.084    0.095    0.084    0.095
 integrate_four_center_load          74 10.0    0.000    0.000    0.068    0.093
 hfx_load_balance                     1 11.0    0.000    0.000    0.068    0.093
 cp_fm_to_fm_submat_general         112 10.1    0.085    0.092    0.085    0.092
 calculate_rho0_atom                296  9.0    0.086    0.087    0.086    0.087
 parser_read_line                 17033  4.0    0.003    0.003    0.085    0.086
 copy_fm_to_dbcsr                   150  8.1    0.000    0.000    0.082    0.085
 parser_read_line_low                29  5.0    0.001    0.016    0.082    0.083
 broadcast_input_information         29  6.0    0.005    0.005    0.081    0.082
 fm_general_add_bse                   5 10.2    0.000    0.000    0.077    0.081
 vxc_of_r_new                       584  9.0    0.001    0.012    0.005    0.077
 dbt_tas_multiply                     8 11.5    0.000    0.000    0.075    0.075
 dbt_tas_total                        8 12.5    0.000    0.001    0.075    0.075
 cp_fm_syrk                           3  7.0    0.070    0.074    0.070    0.074
 mp_sum_l                          1022  6.3    0.050    0.071    0.050    0.071
 dbcsr_finalize                    4936 10.8    0.006    0.019    0.024    0.070
 create_A                             1  8.0    0.001    0.004    0.068    0.069
 dbcsr_desymmetrize_deep            114  7.6    0.003    0.003    0.062    0.068
 scale_and_distribute               148 10.0    0.057    0.068    0.057    0.068
 dbcsr_col_vec_to_rep_row          2015  8.0    0.007    0.008    0.061    0.067
 cp_fm_uplo_to_full                 183  8.4    0.050    0.067    0.050    0.067
 mp_bcast_i_src                     116  7.0    0.062    0.066    0.062    0.066
 write_mo_set_low                     4  6.0    0.000    0.000    0.065    0.066
 cp_fm_write_unformatted              4  7.0    0.065    0.066    0.065    0.066
 create_B                             1  8.0    0.000    0.000    0.062    0.064
 make_m2s                           268  9.1    0.003    0.003    0.059    0.063
 cholesky_decomp                      1  7.0    0.000    0.000    0.035    0.062
 fft_wrap_pw1pw2_10                 148 10.5    0.001    0.001    0.060    0.062
 pw_scale                           293  9.5    0.039    0.062    0.039    0.062
 compute_2c_integrals                 1  7.0    0.000    0.000    0.009    0.061
 mp_alltoall_i11v                   900  9.3    0.060    0.061    0.060    0.061
 mp_isendrecv_dv                  23384 12.0    0.032    0.057    0.032    0.057
 invert_mat                           1  7.0    0.000    0.000    0.028    0.055
 cp_fm_triangular_invert              1  8.0    0.028    0.055    0.028    0.055
 hfx_load_balance_range               1 12.0    0.000    0.000    0.028    0.052
 rs_scatter_matrices                 74  7.0    0.001    0.001    0.049    0.050
 postprocess_bse                      1  9.0    0.000    0.000    0.047    0.049
 mp_rank_compare                   1545 12.9    0.044    0.048    0.044    0.048
 mp_bcast_dv                       2015  9.0    0.039    0.045    0.039    0.045
 scf_post_calculation_gpw             1  3.0    0.000    0.000    0.044    0.044
 write_available_results              1  4.0    0.000    0.000    0.044    0.044
 write_mo_free_results                1  5.0    0.004    0.005    0.044    0.044
 mp_bcast_b_src                     153  7.5    0.037    0.044    0.037    0.044
 integrate_four_center_getP          74 10.0    0.006    0.007    0.040    0.042
 mp_isend_dm3                      2676 11.5    0.029    0.042    0.029    0.042
 cp_fm_symm                          74  7.0    0.038    0.041    0.038    0.041
 dbt_tas_dbm                          8 13.5    0.000    0.000    0.040    0.040
 dbcsr_iterator_start             26540  8.9    0.020    0.030    0.024    0.040
 dbt_tas_mm_1N                        8 14.5    0.000    0.000    0.025    0.039
 dbm_multiply                         8 15.5    0.025    0.039    0.025    0.039
 dbcsr_rep_row_to_rep_col_vec      2015  8.0    0.005    0.006    0.033    0.038
 mp_alltoall_i22                    376  9.2    0.032    0.037    0.032    0.037
 grep_Lcols                           1  7.0    0.000    0.000    0.029    0.037
 mp_sendrecv_dm2                     93  7.2    0.023    0.037    0.023    0.037
 external_control                    74  5.0    0.001    0.034    0.036    0.037
 grep_Lcols_comm                      1  8.0    0.000    0.000    0.029    0.037
 create_integ_mat                     4  6.0    0.001    0.001    0.034    0.035
 abc_contract                      2730  9.0    0.016    0.034    0.016    0.034
 array2fm                             4  7.0    0.000    0.000    0.030    0.034
 hfx_load_balance_redist              1 12.0    0.003    0.003    0.033    0.034
 sort_shells                          4  9.0    0.029    0.033    0.029    0.033
 make_images                        268 10.1    0.006    0.007    0.031    0.033
 integrate_four_center_dist_KS       74 10.0    0.006    0.006    0.032    0.033
 mp_sendrecv_im2                     86  7.2    0.006    0.031    0.006    0.031
 dbcsr_merge_all                   3916 11.5    0.008    0.023    0.012    0.030
 dbt_copy                            12 10.0    0.000    0.000    0.025    0.027
 hybrid_alltoall_any                382 11.0    0.003    0.004    0.026    0.027
 fm_general_add_bse_1_setup           5 11.2    0.023    0.027    0.023    0.027
 mp_isendrecv_lv                    158 13.0    0.001    0.027    0.001    0.027
 mixing_init                          1  5.0    0.026    0.027    0.027    0.027
 dbcsr_copy                        8874  7.6    0.015    0.017    0.025    0.027
 dbcsr_work_create                 4610 10.6    0.005    0.017    0.008    0.025
 get_multipoles_mo                    1 10.0    0.000    0.000    0.021    0.023
 xc_pw_smooth                        73 10.0    0.000    0.000    0.021    0.023
 dbt_distribution_new_expert         76 10.1    0.001    0.001    0.022    0.023
 mp_maxloc_dv                      1511  1.0    0.019    0.022    0.019    0.022
 dbt_tas_estimate_result_nze          4 12.0    0.000    0.001    0.021    0.021
 hirshfeld_integration                1  6.0    0.001    0.006    0.020    0.020
 dbcsr_create_new                 11854  9.1    0.013    0.015    0.018    0.019
 dbcsr_iterator_stop              26540  8.9    0.012    0.016    0.014    0.019
 dbt_tas_distribution_new            94 11.7    0.010    0.011    0.018    0.019
 dbcsr_work_destroy_all            4610 11.6    0.004    0.012    0.005    0.019
 dbcsr_crop_matrix                  438 10.0    0.001    0.002    0.018    0.019
 get_oscillator_strengths             1 10.0    0.000    0.000    0.019    0.019
 calculate_hirshfeld_normalizat       1  6.0    0.001    0.006    0.017    0.018
 dbt_reshape                          8 11.5    0.003    0.005    0.016    0.018
 offload_free_buffer                 82  8.4    0.014    0.017    0.014    0.017
 fm_general_add_bse_4_buf_from_       1 10.0    0.014    0.017    0.014    0.017
 array2fm_info                        4  8.0    0.014    0.016    0.014    0.016
 fm_general_add_bse_5_comm_buff       5 11.2    0.000    0.000    0.012    0.016
 mp_bcast_am_src                     29  7.0    0.013    0.015    0.013    0.016
 communicate_buffer                   5 12.2    0.000    0.000    0.012    0.016
 pw_grid_assign                       4  8.0    0.012    0.014    0.015    0.016
 fm_general_add_bse_4_buf_from_       1 10.0    0.014    0.015    0.014    0.015
 mp_cart_sub                        228  8.6    0.015    0.015    0.015    0.015
 pw_grid_remap                        4  8.0    0.003    0.003    0.013    0.015
 compute_max_radius                   1  6.0    0.014    0.015    0.014    0.015
 multiply_cannon_multrec           1616 11.1    0.010    0.015    0.010    0.015
 dbt_split_blocks_generic            20  8.8    0.002    0.003    0.014    0.015
 dbt_remap                            8 10.0    0.001    0.001    0.015    0.015
 dbcsr_copy_submatrix               438 11.0    0.002    0.002    0.014    0.014
 mult_B_with_W                        1  8.0    0.000    0.000    0.014    0.014
 mp_bcast_av                        756  1.0    0.004    0.006    0.011    0.014
 make_images_sizes                  268 11.1    0.000    0.000    0.011    0.013
 cp_fm_redistribute_start            79  8.0    0.000    0.000    0.008    0.013
 mp_alltoall_i44                    268 12.1    0.011    0.013    0.011    0.013
 dbt_communicate_buffer               8 12.5    0.000    0.000    0.011    0.013
 mp_waitall_2                        50 15.8    0.009    0.013    0.009    0.013
 mp_alltoall_i                       38 14.0    0.010    0.013    0.010    0.013
 mp_sum_im3                           4  9.0    0.011    0.013    0.011    0.013
 dbcsr_data_release               75285 10.5    0.007    0.013    0.007    0.013
 create_fast_col_vec_access        4030  8.0    0.008    0.008    0.012    0.013
 dbcsr_data_new                   45272 11.0    0.006    0.012    0.006    0.012
 create_fast_row_vec_access        4030  8.0    0.007    0.008    0.011    0.012
 dbt_tas_create_split                44 13.2    0.000    0.000    0.012    0.012
 dbt_tas_create_split_rows_or_c      44 14.2    0.000    0.000    0.012    0.012
 dbt_tas_replicate                    8 13.5    0.003    0.005    0.010    0.012
 dbt_create_new                      40  9.5    0.000    0.000    0.011    0.012
 ao_to_mo_and_store_B_mult_bse_       7  7.0    0.000    0.000    0.006    0.011
 dbcsr_sym_matrix_vector_mult_l    2015  8.0    0.004    0.006    0.009    0.011
 array2fm_buffer_send                 4  8.0    0.010    0.011    0.010    0.011
 ao_to_mo_and_store_B_mult_gw_1       7  7.0    0.000    0.000    0.007    0.010
 dbcsr_iterator_seek              26540  9.9    0.004    0.010    0.004    0.010
 fm_general_add_bse_2_comm_entr       5 11.2    0.000    0.000    0.008    0.010
 mp_sum_im                         4017 13.0    0.008    0.010    0.008    0.010
 cp_dbcsr_sm_fm_multiply              3 11.0    0.000    0.000    0.010    0.010
 Q_trace_and_add_unit_matrix        100  8.0    0.000    0.000    0.007    0.010
 hfx_create                           1  2.0    0.009    0.010    0.009    0.010
 dbcsr_scale_anytype               3082  9.0    0.002    0.003    0.008    0.010
 make_images_data                   268 11.1    0.002    0.002    0.007    0.009
 reshape_mm_small                     8 13.5    0.001    0.001    0.009    0.009
 mp_sum_iv                          179  9.9    0.007    0.009    0.007    0.009
 calc_fm_mat_S_rpa                  100  9.0    0.002    0.009    0.002    0.009
 -------------------------------------------------------------------------------

 The number of warnings for this run is : 1
 
 -------------------------------------------------------------------------------
  **** **** ******  **  PROGRAM ENDED AT                 2025-05-05 04:27:31.160
 ***** ** ***  *** **   PROGRAM RAN ON                     n2cn0552.ab2021.local
 **    ****   ******    PROGRAM RAN BY                                  metdyn02
 ***** **    ** ** **   PROGRAM PROCESS ID                                681145
  **** **  *******  **  PROGRAM STOPPED IN /scratch/hpc-prf-metdyn/metdyn02_Remi
                                           /10_MOL/05_MOL/aUKBqsEOTmq69kFe5R_nOg
                                           /5k_set_final_qzvp/TRDMPP01/SZV/GW+BS
                                           E/1e-4
