SIRIUS 7.5.2, git hash: https://api.github.com/repos/electronic-structure/SIRIUS/git/ref/tags/v7.5.2
 DBCSR| CPU Multiplication driver                                           XSMM (U)
 DBCSR| Multrec recursion limit                                              512 (U)
 DBCSR| Multiplication stack size                                           1000 (D)
 DBCSR| Maximum elements for images                                    UNLIMITED (U)
 DBCSR| Multiplicative factor virtual images                                   1 (U)
 DBCSR| Use multiplication densification                                       T (D)
 DBCSR| Multiplication size stacks                                             3 (U)
 DBCSR| Use memory pool for CPU allocation                                     F (U)
 DBCSR| Number of 3D layers                                               SINGLE (U)
 DBCSR| Use MPI memory allocation                                              F (U)
 DBCSR| Use RMA algorithm                                                      F (U)
 DBCSR| Use Communication thread                                               T (U)
 DBCSR| Communication thread load                                             75 (D)
 DBCSR| MPI: My process id                                                     0
 DBCSR| MPI: Number of processes                                             192
 DBCSR| OMP: Current number of threads                                         4
 DBCSR| OMP: Max number of threads                                             4
 DBCSR| Split modifier for TAS multiplication algorithm                  1.0E+00 (U)


  **** **** ******  **  PROGRAM STARTED AT               2025-03-28 13:59:25.797
 ***** ** ***  *** **   PROGRAM STARTED ON                 n2cn0708.ab2021.local
 **    ****   ******    PROGRAM STARTED BY                              metdyn02
 ***** **    ** ** **   PROGRAM PROCESS ID                                695336
  **** **  *******  **  PROGRAM STARTED IN /scratch/hpc-prf-metdyn/metdyn02_Remi
                                           /10_MOL/05_MOL/aUKBqsEOTmq69kFe5R_nOg
                                           /5k_set_final_qzvp/OPUSAU/DZVP/TDDFT/
                                           1e-4

 CP2K| version string:                 CP2K version 2025.1 (Development Version)
 CP2K| source code revision number:                                  git:9754b87
 CP2K| cp2kflags: omp libint fftw3 libxc libgrpp elpa parallel scalapack mpi_f08
 CP2K|             cosma xsmm plumed2 spglib sirius libvori libbqb libvdwxc hdf5
 CP2K| is freely available from                            https://www.cp2k.org/
 CP2K| Program compiled at                          Sun Mar 23 00:44:01 CET 2025
 CP2K| Program compiled on                                              n2login1
 CP2K| Program compiled for                                                local
 CP2K| Data directory path    /opt/software/pc2/EB-SW/software/CP2K/2024.1-foss-
 CP2K| Input file name                                                    GW.inp

 GLOBAL| Force Environment number                                              1
 GLOBAL| Basis set file name            /scratch/hpc-prf-metdyn/metdyn02_Remi/BA
 GLOBAL| Potential file name            /pc2/groups/hpc-prf-metdyn/metdyn02_Remi
 GLOBAL| MM Potential file name                                     MM_POTENTIAL
 GLOBAL| Coordinate file name                                      __STD_INPUT__
 GLOBAL| Method name                                                        CP2K
 GLOBAL| Project name                                                       MoS2
 GLOBAL| Run type                                                         ENERGY
 GLOBAL| FFT library                                                       FFTW3
 GLOBAL| Diagonalization library                                            ELPA
 GLOBAL| DGEMM library                                                      BLAS
 GLOBAL| Minimum number of eigenvectors for ELPA usage                        16
 GLOBAL| Orthonormality check for eigenvectors                          DISABLED
 GLOBAL| Matrix multiplication library                                     COSMA
 GLOBAL| All-to-all communication in single precision                          F
 GLOBAL| FFTs using library dependent lengths                                  F
 GLOBAL| Grid backend                                                       AUTO
 GLOBAL| Global print level                                               MEDIUM
 GLOBAL| MPI I/O enabled                                                       T
 GLOBAL| Total number of message passing processes                           192
 GLOBAL| Number of threads for this process                                    4
 GLOBAL| This output is from process                                           0
 GLOBAL| OpenMP stack size per thread (OMP_STACKSIZE)                    default
 GLOBAL| CPU model name                          AMD EPYC 7763 64-Core Processor
 GLOBAL| CPUID                                                              1002

 MEMORY| system memory details [Kb]
 MEMORY|                        rank 0           min           max       average
 MEMORY| MemTotal            263899264     263899260     263899264     263899262
 MEMORY| MemFree             245539264     242686440     246685232     244526670
 MEMORY| Buffers                 45676         35652        113932         63652
 MEMORY| Cached                6085616       5145212       8941320       7134071
 MEMORY| Slab                  1742796       1535076       1796904       1711538
 MEMORY| SReclaimable           284048        241120        342044        299604
 MEMORY| MemLikelyFree       251954604     251939272     252119420     252023999


 *** Fundamental physical constants (SI units) ***

 *** Literature: B. J. Mohr and B. N. Taylor,
 ***             CODATA recommended values of the fundamental physical
 ***             constants: 2006, Web Version 5.1
 ***             http://physics.nist.gov/constants

 Speed of light in vacuum [m/s]                             2.99792458000000E+08
 Magnetic constant or permeability of vacuum [N/A**2]       1.25663706143592E-06
 Electric constant or permittivity of vacuum [F/m]          8.85418781762039E-12
 Planck constant (h) [J*s]                                  6.62606896000000E-34
 Planck constant (h-bar) [J*s]                              1.05457162825177E-34
 Elementary charge [C]                                      1.60217648700000E-19
 Electron mass [kg]                                         9.10938215000000E-31
 Electron g factor [ ]                                     -2.00231930436220E+00
 Proton mass [kg]                                           1.67262163700000E-27
 Fine-structure constant                                    7.29735253760000E-03
 Rydberg constant [1/m]                                     1.09737315685270E+07
 Avogadro constant [1/mol]                                  6.02214179000000E+23
 Boltzmann constant [J/K]                                   1.38065040000000E-23
 Atomic mass unit [kg]                                      1.66053878200000E-27
 Bohr radius [m]                                            5.29177208590000E-11

 *** Conversion factors ***

 [u] -> [a.u.]                                              1.82288848426455E+03
 [Angstrom] -> [Bohr] = [a.u.]                              1.88972613288564E+00
 [a.u.] = [Bohr] -> [Angstrom]                              5.29177208590000E-01
 [a.u.] -> [s]                                              2.41888432650478E-17
 [a.u.] -> [fs]                                             2.41888432650478E-02
 [a.u.] -> [J]                                              4.35974393937059E-18
 [a.u.] -> [N]                                              8.23872205491840E-08
 [a.u.] -> [K]                                              3.15774647902944E+05
 [a.u.] -> [kJ/mol]                                         2.62549961709828E+03
 [a.u.] -> [kcal/mol]                                       6.27509468713739E+02
 [a.u.] -> [Pa]                                             2.94210107994716E+13
 [a.u.] -> [bar]                                            2.94210107994716E+08
 [a.u.] -> [atm]                                            2.90362800883016E+08
 [a.u.] -> [eV]                                             2.72113838565563E+01
 [a.u.] -> [Hz]                                             6.57968392072181E+15
 [a.u.] -> [1/cm] (wave numbers)                            2.19474631370540E+05
 [a.u./Bohr**2] -> [1/cm]                                   5.14048714338585E+03
 

 CELL_TOP| Volume [angstrom^3]:                                     27000.000000
 CELL_TOP| Vector a [angstrom    30.000     0.000     0.000   |a| =    30.000000
 CELL_TOP| Vector b [angstrom     0.000    30.000     0.000   |b| =    30.000000
 CELL_TOP| Vector c [angstrom     0.000     0.000    30.000   |c| =    30.000000
 CELL_TOP| Angle (b,c), alpha [degree]:                                90.000000
 CELL_TOP| Angle (a,c), beta  [degree]:                                90.000000
 CELL_TOP| Angle (a,b), gamma [degree]:                                90.000000
 CELL_TOP| Numerically orthorhombic:                                         YES
 CELL_TOP| Periodicity                                                      NONE

 GENERATE|  Preliminary Number of Bonds generated:                             0
 GENERATE|  Achieved consistency in connectivity generation.

 CELL| Volume [angstrom^3]:                                         27000.000000
 CELL| Vector a [angstrom]:      30.000     0.000     0.000   |a| =    30.000000
 CELL| Vector b [angstrom]:       0.000    30.000     0.000   |b| =    30.000000
 CELL| Vector c [angstrom]:       0.000     0.000    30.000   |c| =    30.000000
 CELL| Angle (b,c), alpha [degree]:                                    90.000000
 CELL| Angle (a,c), beta  [degree]:                                    90.000000
 CELL| Angle (a,b), gamma [degree]:                                    90.000000
 CELL| Numerically orthorhombic:                                             YES
 CELL| Periodicity                                                          NONE

 CELL_REF| Volume [angstrom^3]:                                     27000.000000
 CELL_REF| Vector a [angstrom    30.000     0.000     0.000   |a| =    30.000000
 CELL_REF| Vector b [angstrom     0.000    30.000     0.000   |b| =    30.000000
 CELL_REF| Vector c [angstrom     0.000     0.000    30.000   |c| =    30.000000
 CELL_REF| Angle (b,c), alpha [degree]:                                90.000000
 CELL_REF| Angle (a,c), beta  [degree]:                                90.000000
 CELL_REF| Angle (a,b), gamma [degree]:                                90.000000
 CELL_REF| Numerically orthorhombic:                                         YES
 CELL_REF| Periodicity                                                      NONE

 *******************************************************************************
 *******************************************************************************
 **                                                                           **
 **     #####                         ##              ##                      **
 **    ##   ##            ##          ##              ##                      **
 **   ##     ##                       ##            ######                    **
 **   ##     ##  ##   ##  ##   #####  ##  ##   ####   ##    #####    #####    **
 **   ##     ##  ##   ##  ##  ##      ## ##   ##      ##   ##   ##  ##   ##   **
 **   ##  ## ##  ##   ##  ##  ##      ####     ###    ##   ######   ######    **
 **    ##  ###   ##   ##  ##  ##      ## ##      ##   ##   ##       ##        **
 **     #######   #####   ##   #####  ##  ##  ####    ##    #####   ##        **
 **           ##                                                    ##        **
 **                                                                           **
 **                                                ... make the atoms dance   **
 **                                                                           **
 **            Copyright (C) by CP2K developers group (2000-2025)             **
 **                      J. Chem. Phys. 152, 194103 (2020)                    **
 **                                                                           **
 *******************************************************************************

 DFT| Spin restricted Kohn-Sham (RKS) calculation                            RKS
 DFT| Multiplicity                                                             1
 DFT| Number of spin states                                                    1
 DFT| Charge                                                                   0
 DFT| Self-interaction correction (SIC)                                       NO
 DFT| Cutoffs: density                                              1.000000E-10
 DFT|          gradient                                             1.000000E-10
 DFT|          tau                                                  1.000000E-10
 DFT|          cutoff_smoothing_range                               0.000000E+00
 DFT| XC density smoothing                                                  NONE
 DFT| XC derivatives                                                          PW

 FUNCTIONAL| PBE:
 FUNCTIONAL| J.P.Perdew, K.Burke, M.Ernzerhof, Phys. Rev. Letter, vol. 77, n 18,
 FUNCTIONAL|  pp. 3865-3868, (1996)sx=0.750sc=1.000{spin unpolarized}           


 QS| Method:                                                                GAPW
 QS| Density plane wave grid type                        NON-SPHERICAL FULLSPACE
 QS| Number of grid levels:                                                    4
 QS| Density cutoff [a.u.]:                                                250.0
 QS| Multi grid cutoff [a.u.]: 1) grid level                               250.0
 QS|                           2) grid level                                83.3
 QS|                           3) grid level                                27.8
 QS|                           4) grid level                                 9.3
 QS| Grid level progression factor:                                          3.0
 QS| Relative density cutoff [a.u.]:                                        50.0
 QS| Interaction thresholds: eps_pgf_orb:                                1.0E-12
 QS|                         eps_filter_matrix:                          0.0E+00
 QS|                         eps_core_charge:                            1.0E-14
 QS|                         eps_rho_gspace:                             1.0E-12
 QS|                         eps_rho_rspace:                             1.0E-12
 QS|                         eps_gvg_rspace:                             1.0E-06
 QS|                         eps_ppl:                                    1.0E-02
 QS|                         eps_ppnl:                                   1.0E-08
 QS| GAPW|      One center basis from orbital basis primitives
 QS| GAPW|                   eps_fit:                                    1.0E-04
 QS| GAPW|                   eps_iso:                                    1.0E-12
 QS| GAPW|                   eps_svd:                                    1.0E-08
 QS| GAPW|                   eps_cpc:                                    1.0E-12
 QS| GAPW|   atom-r-grid: quadrature:                                     GC_LOG
 QS| GAPW|      atom-s-grid:  max l :                                          6
 QS| GAPW|      max_l_rho0 :                                                   2


 ATOMIC KIND INFORMATION

  1. Atomic kind: C                                     Number of atoms:       6

     Orbital Basis Set                                        aug-DZVP-MOLOPT-ae

       Number of orbital shell sets:                                           2
       Number of orbital shells:                                              10
       Number of primitive Cartesian functions:                               13
       Number of Cartesian basis functions:                                   35
       Number of spherical basis functions:                                   30
       Norm type:                                                              2

       Normalised Cartesian orbitals:

                        Set   Shell   Orbital            Exponent    Coefficient

                          1       1    2px               0.050000       0.000000
                                                         0.096935       0.005344
                                                         0.300899       0.144116
                                                         0.937529       0.673511
                                                         4.145546       1.425967
                          1       1    2py               0.050000       0.000000
                                                         0.096935       0.005344
                                                         0.300899       0.144116
                                                         0.937529       0.673511
                                                         4.145546       1.425967
                          1       1    2pz               0.050000       0.000000
                                                         0.096935       0.005344
                                                         0.300899       0.144116
                                                         0.937529       0.673511
                                                         4.145546       1.425967

                          1       2    3px               0.050000       0.000000
                                                         0.096935       0.066903
                                                         0.300899       0.082631
                                                         0.937529      -0.414500
                                                         4.145546      -0.833488
                          1       2    3py               0.050000       0.000000
                                                         0.096935       0.066903
                                                         0.300899       0.082631
                                                         0.937529      -0.414500
                                                         4.145546      -0.833488
                          1       2    3pz               0.050000       0.000000
                                                         0.096935       0.066903
                                                         0.300899       0.082631
                                                         0.937529      -0.414500
                                                         4.145546      -0.833488

                          1       3    4px               0.050000       0.052477
                                                         0.096935      -0.149600
                                                         0.300899      -0.031452
                                                         0.937529       0.106528
                                                         4.145546       0.000000
                          1       3    4py               0.050000       0.052477
                                                         0.096935      -0.149600
                                                         0.300899      -0.031452
                                                         0.937529       0.106528
                                                         4.145546       0.000000
                          1       3    4pz               0.050000       0.052477
                                                         0.096935      -0.149600
                                                         0.300899      -0.031452
                                                         0.937529       0.106528
                                                         4.145546       0.000000

                          1       4    3dx2              0.050000       0.000000
                                                         0.096935       0.001258
                                                         0.300899       0.105504
                                                         0.937529       0.830801
                                                         4.145546       0.718979
                          1       4    3dxy              0.050000       0.000000
                                                         0.096935       0.002179
                                                         0.300899       0.182739
                                                         0.937529       1.438990
                                                         4.145546       1.245309
                          1       4    3dxz              0.050000       0.000000
                                                         0.096935       0.002179
                                                         0.300899       0.182739
                                                         0.937529       1.438990
                                                         4.145546       1.245309
                          1       4    3dy2              0.050000       0.000000
                                                         0.096935       0.001258
                                                         0.300899       0.105504
                                                         0.937529       0.830801
                                                         4.145546       0.718979
                          1       4    3dyz              0.050000       0.000000
                                                         0.096935       0.002179
                                                         0.300899       0.182739
                                                         0.937529       1.438990
                                                         4.145546       1.245309
                          1       4    3dz2              0.050000       0.000000
                                                         0.096935       0.001258
                                                         0.300899       0.105504
                                                         0.937529       0.830801
                                                         4.145546       0.718979

                          1       5    4dx2              0.050000      -0.011665
                                                         0.096935       0.057456
                                                         0.300899      -0.258169
                                                         0.937529       0.000000
                                                         4.145546       0.000000
                          1       5    4dxy              0.050000      -0.020204
                                                         0.096935       0.099516
                                                         0.300899      -0.447162
                                                         0.937529       0.000000
                                                         4.145546       0.000000
                          1       5    4dxz              0.050000      -0.020204
                                                         0.096935       0.099516
                                                         0.300899      -0.447162
                                                         0.937529       0.000000
                                                         4.145546       0.000000
                          1       5    4dy2              0.050000      -0.011665
                                                         0.096935       0.057456
                                                         0.300899      -0.258169
                                                         0.937529       0.000000
                                                         4.145546       0.000000
                          1       5    4dyz              0.050000      -0.020204
                                                         0.096935       0.099516
                                                         0.300899      -0.447162
                                                         0.937529       0.000000
                                                         4.145546       0.000000
                          1       5    4dz2              0.050000      -0.011665
                                                         0.096935       0.057456
                                                         0.300899      -0.258169
                                                         0.937529       0.000000
                                                         4.145546       0.000000

                          1       6    4fx3              0.050000      -0.000180
                                                         0.096935       0.008160
                                                         0.300899       0.004002
                                                         0.937529       0.000000
                                                         4.145546       0.000000
                          1       6    4fx2y             0.050000      -0.000402
                                                         0.096935       0.018246
                                                         0.300899       0.008949
                                                         0.937529       0.000000
                                                         4.145546       0.000000
                          1       6    4fx2z             0.050000      -0.000402
                                                         0.096935       0.018246
                                                         0.300899       0.008949
                                                         0.937529       0.000000
                                                         4.145546       0.000000
                          1       6    4fxy2             0.050000      -0.000402
                                                         0.096935       0.018246
                                                         0.300899       0.008949
                                                         0.937529       0.000000
                                                         4.145546       0.000000
                          1       6    4fxyz             0.050000      -0.000696
                                                         0.096935       0.031603
                                                         0.300899       0.015500
                                                         0.937529       0.000000
                                                         4.145546       0.000000
                          1       6    4fxz2             0.050000      -0.000402
                                                         0.096935       0.018246
                                                         0.300899       0.008949
                                                         0.937529       0.000000
                                                         4.145546       0.000000
                          1       6    4fy3              0.050000      -0.000180
                                                         0.096935       0.008160
                                                         0.300899       0.004002
                                                         0.937529       0.000000
                                                         4.145546       0.000000
                          1       6    4fy2z             0.050000      -0.000402
                                                         0.096935       0.018246
                                                         0.300899       0.008949
                                                         0.937529       0.000000
                                                         4.145546       0.000000
                          1       6    4fyz2             0.050000      -0.000402
                                                         0.096935       0.018246
                                                         0.300899       0.008949
                                                         0.937529       0.000000
                                                         4.145546       0.000000
                          1       6    4fz3              0.050000      -0.000180
                                                         0.096935       0.008160
                                                         0.300899       0.004002
                                                         0.937529       0.000000
                                                         4.145546       0.000000

                          2       1    1s                0.060000       0.000000
                                                         0.161278       0.024253
                                                         0.523772      -0.029268
                                                         3.176528       0.666384
                                                        10.501907       2.110671
                                                        40.805234       2.242010
                                                       186.270922       1.801845
                                                      1238.394264      -0.490536

                          2       2    2s                0.060000       0.000000
                                                         0.161278       0.080328
                                                         0.523772       0.279468
                                                         3.176528      -0.079506
                                                        10.501907      -0.033488
                                                        40.805234       0.350132
                                                       186.270922      -0.108171
                                                      1238.394264       0.147138

                          2       3    3s                0.060000       0.000000
                                                         0.161278       0.225687
                                                         0.523772      -0.382710
                                                         3.176528      -0.308205
                                                        10.501907      -0.974990
                                                        40.805234      -2.174132
                                                       186.270922       1.755878
                                                      1238.394264     -12.484315

                          2       4    4s                0.060000      -0.055653
                                                         0.161278      -0.019607
                                                         0.523772       0.500289
                                                         3.176528       0.067234
                                                        10.501907       0.000000
                                                        40.805234       0.000000
                                                       186.270922       0.000000
                                                      1238.394264       0.000000

     RI Auxiliary Basis Set             RI_aug-DZVP-MOLOPT-ae_N_RI_060_s_p_d_f_g

       Number of orbital shell sets:                                          18
       Number of orbital shells:                                              18
       Number of primitive Cartesian functions:                               18
       Number of Cartesian basis functions:                                   75
       Number of spherical basis functions:                                   60
       Norm type:                                                              2

       Normalised Cartesian orbitals:

                        Set   Shell   Orbital            Exponent    Coefficient

                          1       1    1s                0.139029       0.162270

                          2       1   13dx2              0.260720       0.156572
                          2       1   13dxy              0.260720       0.271190
                          2       1   13dxz              0.260720       0.271190
                          2       1   13dy2              0.260720       0.156572
                          2       1   13dyz              0.260720       0.271190
                          2       1   13dz2              0.260720       0.156572

                          3       1    8px               0.263737       0.269404
                          3       1    8py               0.263737       0.269404
                          3       1    8pz               0.263737       0.269404

                          4       1   16fx3              0.295019       0.094432
                          4       1   16fx2y             0.295019       0.211156
                          4       1   16fx2z             0.295019       0.211156
                          4       1   16fxy2             0.295019       0.211156
                          4       1   16fxyz             0.295019       0.365732
                          4       1   16fxz2             0.295019       0.211156
                          4       1   16fy3              0.295019       0.094432
                          4       1   16fy2z             0.295019       0.211156
                          4       1   16fyz2             0.295019       0.211156
                          4       1   16fz3              0.295019       0.094432

                          5       1    2s                0.350935       0.324960

                          6       1    9px               0.711576       0.931572
                          6       1    9py               0.711576       0.931572
                          6       1    9pz               0.711576       0.931572

                          7       1   14dx2              0.722037       0.930870
                          7       1   14dxy              0.722037       1.612314
                          7       1   14dxz              0.722037       1.612314
                          7       1   14dy2              0.722037       0.930870
                          7       1   14dyz              0.722037       1.612314
                          7       1   14dz2              0.722037       0.930870

                          8       1   18gx4              0.735195       0.477576
                          8       1   18gx3y             0.735195       1.263547
                          8       1   18gx3z             0.735195       1.263547
                          8       1   18gx2y2            0.735195       1.631232
                          8       1   18gx2yz            0.735195       2.825377
                          8       1   18gx2z2            0.735195       1.631232
                          8       1   18gxy3             0.735195       1.263547
                          8       1   18gxy2z            0.735195       2.825377
                          8       1   18gxyz2            0.735195       2.825377
                          8       1   18gxz3             0.735195       1.263547
                          8       1   18gy4              0.735195       0.477576
                          8       1   18gy3z             0.735195       1.263547
                          8       1   18gy2z2            0.735195       1.631232
                          8       1   18gyz3             0.735195       1.263547
                          8       1   18gz4              0.735195       0.477576

                          9       1    3s                1.027105       0.727145

                         10       1   17fx3              1.228639       2.339694
                         10       1   17fx2y             1.228639       5.231715
                         10       1   17fx2z             1.228639       5.231715
                         10       1   17fxy2             1.228639       5.231715
                         10       1   17fxyz             1.228639       9.061596
                         10       1   17fxz2             1.228639       5.231715
                         10       1   17fy3              1.228639       2.339694
                         10       1   17fy2z             1.228639       5.231715
                         10       1   17fyz2             1.228639       5.231715
                         10       1   17fz3              1.228639       2.339694

                         11       1   10px               1.813548       2.999863
                         11       1   10py               1.813548       2.999863
                         11       1   10pz               1.813548       2.999863

                         12       1   15dx2              2.060642       5.833296
                         12       1   15dxy              2.060642      10.103564
                         12       1   15dxz              2.060642      10.103564
                         12       1   15dy2              2.060642       5.833296
                         12       1   15dyz              2.060642      10.103564
                         12       1   15dz2              2.060642       5.833296

                         13       1    4s                3.115108       1.671148

                         14       1   11px               5.572228      12.203269
                         14       1   11py               5.572228      12.203269
                         14       1   11pz               5.572228      12.203269

                         15       1    5s                9.292692       3.793292

                         16       1   12px              16.974300      49.111129
                         16       1   12py              16.974300      49.111129
                         16       1   12pz              16.974300      49.111129

                         17       1    6s               27.662549       8.596650

                         18       1    7s               82.345042      19.482208

       Atomic covalent radius [Angstrom]:                                  0.770

       Atomic van der Waals radius [Angstrom]:                             1.700

     The atoms of this atomic kind are PAW atoms (GAPW):
       Hard Gaussian function radius:                                      1.512
       Rho0 radius:                                                        1.512
       Maximum GTO radius used for PAW projector construction:            24.566

     GAPW Soft Basis Set                                 aug-DZVP-MOLOPT-ae_soft

       Number of orbital shell sets:                                           2
       Number of orbital shells:                                              10
       Number of primitive Cartesian functions:                                9
       Number of Cartesian basis functions:                                   35
       Number of spherical basis functions:                                   30
       Norm type:                                                              2

       Normalised Cartesian orbitals:

                        Set   Shell   Orbital            Exponent    Coefficient

                          1       1    2px               0.050000       0.000000
                                                         0.096935       0.005344
                                                         0.300899       0.144116
                                                         0.937529       0.673511
                                                         4.145546       1.425967
                          1       1    2py               0.050000       0.000000
                                                         0.096935       0.005344
                                                         0.300899       0.144116
                                                         0.937529       0.673511
                                                         4.145546       1.425967
                          1       1    2pz               0.050000       0.000000
                                                         0.096935       0.005344
                                                         0.300899       0.144116
                                                         0.937529       0.673511
                                                         4.145546       1.425967

                          1       2    3px               0.050000       0.000000
                                                         0.096935       0.066903
                                                         0.300899       0.082631
                                                         0.937529      -0.414500
                                                         4.145546      -0.833488
                          1       2    3py               0.050000       0.000000
                                                         0.096935       0.066903
                                                         0.300899       0.082631
                                                         0.937529      -0.414500
                                                         4.145546      -0.833488
                          1       2    3pz               0.050000       0.000000
                                                         0.096935       0.066903
                                                         0.300899       0.082631
                                                         0.937529      -0.414500
                                                         4.145546      -0.833488

                          1       3    4px               0.050000       0.052477
                                                         0.096935      -0.149600
                                                         0.300899      -0.031452
                                                         0.937529       0.106528
                                                         4.145546       0.000000
                          1       3    4py               0.050000       0.052477
                                                         0.096935      -0.149600
                                                         0.300899      -0.031452
                                                         0.937529       0.106528
                                                         4.145546       0.000000
                          1       3    4pz               0.050000       0.052477
                                                         0.096935      -0.149600
                                                         0.300899      -0.031452
                                                         0.937529       0.106528
                                                         4.145546       0.000000

                          1       4    3dx2              0.050000       0.000000
                                                         0.096935       0.001258
                                                         0.300899       0.105504
                                                         0.937529       0.830801
                                                         4.145546       0.718979
                          1       4    3dxy              0.050000       0.000000
                                                         0.096935       0.002179
                                                         0.300899       0.182739
                                                         0.937529       1.438990
                                                         4.145546       1.245309
                          1       4    3dxz              0.050000       0.000000
                                                         0.096935       0.002179
                                                         0.300899       0.182739
                                                         0.937529       1.438990
                                                         4.145546       1.245309
                          1       4    3dy2              0.050000       0.000000
                                                         0.096935       0.001258
                                                         0.300899       0.105504
                                                         0.937529       0.830801
                                                         4.145546       0.718979
                          1       4    3dyz              0.050000       0.000000
                                                         0.096935       0.002179
                                                         0.300899       0.182739
                                                         0.937529       1.438990
                                                         4.145546       1.245309
                          1       4    3dz2              0.050000       0.000000
                                                         0.096935       0.001258
                                                         0.300899       0.105504
                                                         0.937529       0.830801
                                                         4.145546       0.718979

                          1       5    4dx2              0.050000      -0.011665
                                                         0.096935       0.057456
                                                         0.300899      -0.258169
                                                         0.937529       0.000000
                                                         4.145546       0.000000
                          1       5    4dxy              0.050000      -0.020204
                                                         0.096935       0.099516
                                                         0.300899      -0.447162
                                                         0.937529       0.000000
                                                         4.145546       0.000000
                          1       5    4dxz              0.050000      -0.020204
                                                         0.096935       0.099516
                                                         0.300899      -0.447162
                                                         0.937529       0.000000
                                                         4.145546       0.000000
                          1       5    4dy2              0.050000      -0.011665
                                                         0.096935       0.057456
                                                         0.300899      -0.258169
                                                         0.937529       0.000000
                                                         4.145546       0.000000
                          1       5    4dyz              0.050000      -0.020204
                                                         0.096935       0.099516
                                                         0.300899      -0.447162
                                                         0.937529       0.000000
                                                         4.145546       0.000000
                          1       5    4dz2              0.050000      -0.011665
                                                         0.096935       0.057456
                                                         0.300899      -0.258169
                                                         0.937529       0.000000
                                                         4.145546       0.000000

                          1       6    4fx3              0.050000      -0.000180
                                                         0.096935       0.008160
                                                         0.300899       0.004002
                                                         0.937529       0.000000
                                                         4.145546       0.000000
                          1       6    4fx2y             0.050000      -0.000402
                                                         0.096935       0.018246
                                                         0.300899       0.008949
                                                         0.937529       0.000000
                                                         4.145546       0.000000
                          1       6    4fx2z             0.050000      -0.000402
                                                         0.096935       0.018246
                                                         0.300899       0.008949
                                                         0.937529       0.000000
                                                         4.145546       0.000000
                          1       6    4fxy2             0.050000      -0.000402
                                                         0.096935       0.018246
                                                         0.300899       0.008949
                                                         0.937529       0.000000
                                                         4.145546       0.000000
                          1       6    4fxyz             0.050000      -0.000696
                                                         0.096935       0.031603
                                                         0.300899       0.015500
                                                         0.937529       0.000000
                                                         4.145546       0.000000
                          1       6    4fxz2             0.050000      -0.000402
                                                         0.096935       0.018246
                                                         0.300899       0.008949
                                                         0.937529       0.000000
                                                         4.145546       0.000000
                          1       6    4fy3              0.050000      -0.000180
                                                         0.096935       0.008160
                                                         0.300899       0.004002
                                                         0.937529       0.000000
                                                         4.145546       0.000000
                          1       6    4fy2z             0.050000      -0.000402
                                                         0.096935       0.018246
                                                         0.300899       0.008949
                                                         0.937529       0.000000
                                                         4.145546       0.000000
                          1       6    4fyz2             0.050000      -0.000402
                                                         0.096935       0.018246
                                                         0.300899       0.008949
                                                         0.937529       0.000000
                                                         4.145546       0.000000
                          1       6    4fz3              0.050000      -0.000180
                                                         0.096935       0.008160
                                                         0.300899       0.004002
                                                         0.937529       0.000000
                                                         4.145546       0.000000

                          2       1    1s                0.060000       0.000000
                                                         0.161278       0.024253
                                                         0.523772      -0.029268
                                                         3.176528       0.666384

                          2       2    2s                0.060000       0.000000
                                                         0.161278       0.080328
                                                         0.523772       0.279468
                                                         3.176528      -0.079506

                          2       3    3s                0.060000       0.000000
                                                         0.161278       0.225687
                                                         0.523772      -0.382710
                                                         3.176528      -0.308205

                          2       4    4s                0.060000      -0.055653
                                                         0.161278      -0.019607
                                                         0.523772       0.500289
                                                         3.176528       0.067234

     AE Potential information for                                            ALL

       Description:                                       All-electron potential
                                          Krack, Parrinello, PCCP 2, 2105 (2000)

       Gaussian exponent of the core charge distribution:               4.109048
       Electronic configuration (s p d ...):                           4   2   0

  2. Atomic kind: O                                     Number of atoms:       4

     Orbital Basis Set                                        aug-DZVP-MOLOPT-ae

       Number of orbital shell sets:                                           2
       Number of orbital shells:                                              10
       Number of primitive Cartesian functions:                               12
       Number of Cartesian basis functions:                                   35
       Number of spherical basis functions:                                   30
       Norm type:                                                              2

       Normalised Cartesian orbitals:

                        Set   Shell   Orbital            Exponent    Coefficient

                          1       1    2s                0.090000       0.120905
                                                         0.191936      -0.019521
                                                         0.750068       0.059582
                                                         2.907977       0.000000
                                                        16.368686       0.000000

                          1       2    3px               0.090000       0.000000
                                                         0.191936       0.023686
                                                         0.750068       0.626550
                                                         2.907977       2.082711
                                                        16.368686       3.596544
                          1       2    3py               0.090000       0.000000
                                                         0.191936       0.023686
                                                         0.750068       0.626550
                                                         2.907977       2.082711
                                                        16.368686       3.596544
                          1       2    3pz               0.090000       0.000000
                                                         0.191936       0.023686
                                                         0.750068       0.626550
                                                         2.907977       2.082711
                                                        16.368686       3.596544

                          1       3    4px               0.090000       0.000000
                                                         0.191936       0.196557
                                                         0.750068      -0.157257
                                                         2.907977      -0.566756
                                                        16.368686      -1.323495
                          1       3    4py               0.090000       0.000000
                                                         0.191936       0.196557
                                                         0.750068      -0.157257
                                                         2.907977      -0.566756
                                                        16.368686      -1.323495
                          1       3    4pz               0.090000       0.000000
                                                         0.191936       0.196557
                                                         0.750068      -0.157257
                                                         2.907977      -0.566756
                                                        16.368686      -1.323495

                          1       4    5px               0.090000       0.020606
                                                         0.191936       0.124186
                                                         0.750068       0.098287
                                                         2.907977       0.000000
                                                        16.368686       0.000000
                          1       4    5py               0.090000       0.020606
                                                         0.191936       0.124186
                                                         0.750068       0.098287
                                                         2.907977       0.000000
                                                        16.368686       0.000000
                          1       4    5pz               0.090000       0.020606
                                                         0.191936       0.124186
                                                         0.750068       0.098287
                                                         2.907977       0.000000
                                                        16.368686       0.000000

                          1       5    4dx2              0.090000       0.000000
                                                         0.191936       0.030414
                                                         0.750068       0.724129
                                                         2.907977       1.586204
                                                        16.368686       1.487256
                          1       5    4dxy              0.090000       0.000000
                                                         0.191936       0.052678
                                                         0.750068       1.254227
                                                         2.907977       2.747386
                                                        16.368686       2.576002
                          1       5    4dxz              0.090000       0.000000
                                                         0.191936       0.052678
                                                         0.750068       1.254227
                                                         2.907977       2.747386
                                                        16.368686       2.576002
                          1       5    4dy2              0.090000       0.000000
                                                         0.191936       0.030414
                                                         0.750068       0.724129
                                                         2.907977       1.586204
                                                        16.368686       1.487256
                          1       5    4dyz              0.090000       0.000000
                                                         0.191936       0.052678
                                                         0.750068       1.254227
                                                         2.907977       2.747386
                                                        16.368686       2.576002
                          1       5    4dz2              0.090000       0.000000
                                                         0.191936       0.030414
                                                         0.750068       0.724129
                                                         2.907977       1.586204
                                                        16.368686       1.487256

                          1       6    5dx2              0.090000      -0.010181
                                                         0.191936       0.018957
                                                         0.750068       0.933882
                                                         2.907977       0.008471
                                                        16.368686       0.000000
                          1       6    5dxy              0.090000      -0.017634
                                                         0.191936       0.032834
                                                         0.750068       1.617531
                                                         2.907977       0.014671
                                                        16.368686       0.000000
                          1       6    5dxz              0.090000      -0.017634
                                                         0.191936       0.032834
                                                         0.750068       1.617531
                                                         2.907977       0.014671
                                                        16.368686       0.000000
                          1       6    5dy2              0.090000      -0.010181
                                                         0.191936       0.018957
                                                         0.750068       0.933882
                                                         2.907977       0.008471
                                                        16.368686       0.000000
                          1       6    5dyz              0.090000      -0.017634
                                                         0.191936       0.032834
                                                         0.750068       1.617531
                                                         2.907977       0.014671
                                                        16.368686       0.000000
                          1       6    5dz2              0.090000      -0.010181
                                                         0.191936       0.018957
                                                         0.750068       0.933882
                                                         2.907977       0.008471
                                                        16.368686       0.000000

                          1       7    5fx3              0.090000       0.003073
                                                         0.191936       0.017866
                                                         0.750068       0.208981
                                                         2.907977      -1.809714
                                                        16.368686       0.000000
                          1       7    5fx2y             0.090000       0.006871
                                                         0.191936       0.039950
                                                         0.750068       0.467295
                                                         2.907977      -4.046643
                                                        16.368686       0.000000
                          1       7    5fx2z             0.090000       0.006871
                                                         0.191936       0.039950
                                                         0.750068       0.467295
                                                         2.907977      -4.046643
                                                        16.368686       0.000000
                          1       7    5fxy2             0.090000       0.006871
                                                         0.191936       0.039950
                                                         0.750068       0.467295
                                                         2.907977      -4.046643
                                                        16.368686       0.000000
                          1       7    5fxyz             0.090000       0.011901
                                                         0.191936       0.069196
                                                         0.750068       0.809378
                                                         2.907977      -7.008992
                                                        16.368686       0.000000
                          1       7    5fxz2             0.090000       0.006871
                                                         0.191936       0.039950
                                                         0.750068       0.467295
                                                         2.907977      -4.046643
                                                        16.368686       0.000000
                          1       7    5fy3              0.090000       0.003073
                                                         0.191936       0.017866
                                                         0.750068       0.208981
                                                         2.907977      -1.809714
                                                        16.368686       0.000000
                          1       7    5fy2z             0.090000       0.006871
                                                         0.191936       0.039950
                                                         0.750068       0.467295
                                                         2.907977      -4.046643
                                                        16.368686       0.000000
                          1       7    5fyz2             0.090000       0.006871
                                                         0.191936       0.039950
                                                         0.750068       0.467295
                                                         2.907977      -4.046643
                                                        16.368686       0.000000
                          1       7    5fz3              0.090000       0.003073
                                                         0.191936       0.017866
                                                         0.750068       0.208981
                                                         2.907977      -1.809714
                                                        16.368686       0.000000

                          2       1    1s                0.293338      -0.001581
                                                         0.941883       0.076823
                                                         5.946538      -1.128731
                                                        19.692604      -3.542509
                                                        76.928143      -3.538410
                                                       340.903325      -2.616043
                                                      2266.118827      -1.088852

                          2       2    2s                0.293338       0.124568
                                                         0.941883       0.386056
                                                         5.946538       0.132815
                                                        19.692604       0.350657
                                                        76.928143       1.294240
                                                       340.903325      -0.343055
                                                      2266.118827       0.730749

                          2       3    3s                0.293338       0.411906
                                                         0.941883      -0.735854
                                                         5.946538      -0.324434
                                                        19.692604      -0.580898
                                                        76.928143      -3.484318
                                                       340.903325       2.878168
                                                      2266.118827      -6.417666

     RI Auxiliary Basis Set             RI_aug-DZVP-MOLOPT-ae_N_RI_072_s_p_d_f_g

       Number of orbital shell sets:                                          20
       Number of orbital shells:                                              20
       Number of primitive Cartesian functions:                               20
       Number of Cartesian basis functions:                                   91
       Number of spherical basis functions:                                   72
       Norm type:                                                              2

       Normalised Cartesian orbitals:

                        Set   Shell   Orbital            Exponent    Coefficient

                          1       1    1s                0.149663       0.171493

                          2       1   13dx2              0.154035       0.062337
                          2       1   13dxy              0.154035       0.107971
                          2       1   13dxz              0.154035       0.107971
                          2       1   13dy2              0.154035       0.062337
                          2       1   13dyz              0.154035       0.107971
                          2       1   13dz2              0.154035       0.062337

                          3       1    8px               0.183646       0.171363
                          3       1    8py               0.183646       0.171363
                          3       1    8pz               0.183646       0.171363

                          4       1   17fx3              0.375009       0.162012
                          4       1   17fx2y             0.375009       0.362270
                          4       1   17fx2z             0.375009       0.362270
                          4       1   17fxy2             0.375009       0.362270
                          4       1   17fxyz             0.375009       0.627470
                          4       1   17fxz2             0.375009       0.362270
                          4       1   17fy3              0.375009       0.162012
                          4       1   17fy2z             0.375009       0.362270
                          4       1   17fyz2             0.375009       0.362270
                          4       1   17fz3              0.375009       0.162012

                          5       1    2s                0.391216       0.352551

                          6       1   14dx2              0.576365       0.627525
                          6       1   14dxy              0.576365       1.086905
                          6       1   14dxz              0.576365       1.086905
                          6       1   14dy2              0.576365       0.627525
                          6       1   14dyz              0.576365       1.086905
                          6       1   14dz2              0.576365       0.627525

                          7       1    9px               0.681723       0.882978
                          7       1    9py               0.681723       0.882978
                          7       1    9pz               0.681723       0.882978

                          8       1   20gx4              0.710982       0.435559
                          8       1   20gx3y             0.710982       1.152381
                          8       1   20gx3z             0.710982       1.152381
                          8       1   20gx2y2            0.710982       1.487718
                          8       1   20gx2yz            0.710982       2.576803
                          8       1   20gx2z2            0.710982       1.487718
                          8       1   20gxy3             0.710982       1.152381
                          8       1   20gxy2z            0.710982       2.576803
                          8       1   20gxyz2            0.710982       2.576803
                          8       1   20gxz3             0.710982       1.152381
                          8       1   20gy4              0.710982       0.435559
                          8       1   20gy3z             0.710982       1.152381
                          8       1   20gy2z2            0.710982       1.487718
                          8       1   20gyz3             0.710982       1.152381
                          8       1   20gz4              0.710982       0.435559

                          9       1   10px               1.077483       1.564779
                          9       1   10py               1.077483       1.564779
                          9       1   10pz               1.077483       1.564779

                         10       1    3s                1.173203       0.803415

                         11       1   15dx2              1.274843       2.517437
                         11       1   15dxy              1.274843       4.360328
                         11       1   15dxz              1.274843       4.360328
                         11       1   15dy2              1.274843       2.517437
                         11       1   15dyz              1.274843       4.360328
                         11       1   15dz2              1.274843       2.517437

                         12       1   18fx3              1.337264       2.831020
                         12       1   18fx2y             1.337264       6.330353
                         12       1   18fx2z             1.337264       6.330353
                         12       1   18fxy2             1.337264       6.330353
                         12       1   18fxyz             1.337264      10.964493
                         12       1   18fxz2             1.337264       6.330353
                         12       1   18fy3              1.337264       2.831020
                         12       1   18fy2z             1.337264       6.330353
                         12       1   18fyz2             1.337264       6.330353
                         12       1   18fz3              1.337264       2.831020

                         13       1    4s                3.143421       1.682527

                         14       1   11px               3.601750       7.072649
                         14       1   11py               3.601750       7.072649
                         14       1   11pz               3.601750       7.072649

                         15       1   16dx2              4.763207      25.277465
                         15       1   16dxy              4.763207      43.781854
                         15       1   16dxz              4.763207      43.781854
                         15       1   16dy2              4.763207      25.277465
                         15       1   16dyz              4.763207      43.781854
                         15       1   16dz2              4.763207      25.277465

                         16       1   19fx3              5.064165      56.636583
                         16       1   19fx2y             5.064165     126.643249
                         16       1   19fx2z             5.064165     126.643249
                         16       1   19fxy2             5.064165     126.643249
                         16       1   19fxyz             5.064165     219.352541
                         16       1   19fxz2             5.064165     126.643249
                         16       1   19fy3              5.064165      56.636583
                         16       1   19fy2z             5.064165     126.643249
                         16       1   19fyz2             5.064165     126.643249
                         16       1   19fz3              5.064165      56.636583

                         17       1    5s               12.516691       4.742717

                         18       1   12px              19.115095      56.971896
                         18       1   12py              19.115095      56.971896
                         18       1   12pz              19.115095      56.971896

                         19       1    6s               46.942700      12.781627

                         20       1    7s              160.163322      32.087242

       Atomic covalent radius [Angstrom]:                                  0.730

       Atomic van der Waals radius [Angstrom]:                             1.520

     The atoms of this atomic kind are PAW atoms (GAPW):
       Hard Gaussian function radius:                                      1.512
       Rho0 radius:                                                        1.512
       Maximum GTO radius used for PAW projector construction:            24.566

     GAPW Soft Basis Set                                 aug-DZVP-MOLOPT-ae_soft

       Number of orbital shell sets:                                           2
       Number of orbital shells:                                              10
       Number of primitive Cartesian functions:                                6
       Number of Cartesian basis functions:                                   35
       Number of spherical basis functions:                                   30
       Norm type:                                                              2

       Normalised Cartesian orbitals:

                        Set   Shell   Orbital            Exponent    Coefficient

                          1       1    2s                0.090000       0.120905
                                                         0.191936      -0.019521
                                                         0.750068       0.059582
                                                         2.907977       0.000000

                          1       2    3px               0.090000       0.000000
                                                         0.191936       0.023686
                                                         0.750068       0.626550
                                                         2.907977       2.082711
                          1       2    3py               0.090000       0.000000
                                                         0.191936       0.023686
                                                         0.750068       0.626550
                                                         2.907977       2.082711
                          1       2    3pz               0.090000       0.000000
                                                         0.191936       0.023686
                                                         0.750068       0.626550
                                                         2.907977       2.082711

                          1       3    4px               0.090000       0.000000
                                                         0.191936       0.196557
[...]
 The design and implementation of FFTW3.
 https://doi.org/10.1109/JPROC.2004.840301

 R. L. Martin.
 J. Chem. Phys. 118, 4775-4777 (2003).
 Natural transition orbitals.
 https://doi.org/10.1063/1.1558471

 M. Krack, M. Parrinello.
 Phys. Chem. Chem. Phys. 2, 2105-2112 (2000).
 All-electron ab-initio molecular dynamics.
 https://doi.org/10.1039/b001167n

 G. Lippert, J. Hutter, M. Parrinello.
 Theor. Chem. Acc. 103, 124-140 (1999).
 The Gaussian and augmented-plane-wave density functional method for ab initio 
 molecular dynamics simulations.
 https://doi.org/10.1007/s002140050523

 J. P. Perdew, K. Burke, M. Ernzerhof.
 Phys. Rev. Lett. 77, 3865-3868 (1996).
 Generalized gradient approximation made simple.
 https://doi.org/10.1103/PhysRevLett.77.3865


 -------------------------------------------------------------------------------
 -                                                                             -
 -                                T I M I N G                                  -
 -                                                                             -
 -------------------------------------------------------------------------------
 SUBROUTINE                       CALLS  ASD         SELF TIME        TOTAL TIME
                                MAXIMUM       AVERAGE  MAXIMUM  AVERAGE  MAXIMUM
 CP2K                                 1  1.0    0.023    0.073  390.589  390.592
 qs_energies                          1  2.0    0.000    0.000  390.281  390.283
 qs_energies_properties               1  3.0    0.000    0.000  266.691  266.693
 tddfpt                               1  4.0    0.000    0.000  266.691  266.693
 tddfpt_energies                      1  5.0    0.000    0.000  266.667  266.668
 tddfpt_davidson_solver               1  6.0    0.001    0.002  264.289  264.291
 tddfpt_compute_Aop_evects            9  7.0    0.000    0.000  262.512  262.513
 fhxc_kernel                          9  8.0    0.007    0.010  227.542  227.543
 fft_wrap_pw1pw2                   5105 11.1    0.100    0.128  132.819  140.507
 fft_wrap_pw1pw2_250               3593 12.1    2.867    3.866  125.531  137.706
 fft3d_ps                          5105 13.1   17.961   24.915  121.376  128.196
 scf_env_do_scf                       1  3.0    0.000    0.000  122.410  122.418
 scf_env_do_scf_inner_loop           71  4.0    0.001    0.004  122.410  122.418
 mp_alltoall_z22v                  5105 15.1   97.666  104.181   97.666  104.181
 qs_ks_update_qs_env                 71  5.0    0.000    0.001   92.131   92.163
 rebuild_ks_matrix                   71  6.0    0.000    0.000   92.124   92.156
 qs_ks_build_kohn_sham_matrix        71  7.0    0.010    0.012   92.124   92.156
 qs_rho_update_rho_low              253  7.9    0.003    0.003   76.915   76.925
 tddfpt_apply_coulomb               180  9.0    0.003    0.004   72.604   75.207
 calculate_rho_elec                 253  8.9    0.332    0.471   73.558   73.565
 pw_poisson_solve                   251  9.4    1.108    1.490   69.829   72.429
 integrate_four_center              431  9.8   16.279   30.885   55.411   55.465
 yz_to_x                           2014 14.5    1.771    2.049   50.070   55.383
 x_to_yz                           2083 13.7    2.291    3.879   51.513   54.545
 xc_pw_derive                      1509 11.0    0.012    0.014   51.607   53.740
 integrate_v_rspace                 251  9.0    0.006    0.008   44.699   46.600
 tddfpt_apply_xc_analytic           180  9.0    0.287    0.408   45.181   46.580
 density_rs2pw                      253  9.9    0.011    0.013   42.136   45.099
 potential_pw2rs                    251 10.0    0.026    0.033   42.748   43.004
 transfer_pw2rs                    1256 10.9    0.023    0.032   39.620   40.729
 ps_wavelet_solve                   251 10.4   15.152   21.302   36.608   39.654
 xc_pw_divergence                   251 10.7    0.005    0.006   34.128   35.176
 mp_waitany                       82710 12.8   29.366   34.638   29.366   34.638
 tddfpt_apply_hfx                     9  8.0    0.002    0.003   34.601   34.601
 grid_collocate_task_list           253  9.9   28.694   33.278   28.694   33.278
 tddft_hfx_matrix                   360  9.0    0.004    0.006   32.535   32.577
 mp_sync                           2284 11.5   16.557   30.201   16.557   30.201
 transfer_rs2pw                    1265 10.8    0.032    0.051   25.995   27.927
 mp_sum_d                          9983  7.4   10.122   27.460   10.122   27.460
 xc_calc_2nd_deriv_analytical       900 10.1    1.292    1.680   26.263   26.995
 prepare_gapw_den                   252  8.7    0.004    0.004   24.135   26.192
 transfer_pw2rs_250                 503 11.7    4.854    5.494   23.778   25.573
 mp_alltoall_d54                    251 11.4   10.809   23.497   10.809   23.497
 hfx_ks_matrix                       71  8.0    0.001    0.002   22.885   22.913
 put_rho0_on_grid                   252  9.7    0.361    0.556   20.435   22.492
 integrate_four_center_main         431 10.8    0.098    0.200   18.227   20.902
 integrate_four_center_bin        27194 11.8   18.129   20.801   18.129   20.801
 qs_vxc_create                       71  8.0    0.001    0.001   20.282   20.282
 xc_vxc_pw_create                    71  9.0    0.147    0.198   20.281   20.282
 integrate_vhg0_rspace              251  9.4    0.347    0.436   19.592   20.221
 transfer_rs2pw_250                 506 11.8    5.107    5.640   16.707   18.382
 fft_wrap_pw1pw2_90                 504 11.9    0.096    0.154    5.883   15.892
 mp_alltoall_d45                    252 11.4   10.998   14.051   10.998   14.051
 mp_alltoall_d11v                 15916 11.6    9.278   13.492    9.278   13.492
 mp_waitall_1                    491670 13.2   10.496   13.423   10.496   13.423
 transfer_pw2rs_90                  251 12.0    0.810    0.960    8.643   11.938
 sum_up_and_integrate                71  8.0    0.001    0.002   10.741   11.206
 mp_isend_dm3                     10086 12.8    7.201   10.924    7.201   10.924
 mp_sum_dm                        12216 10.0    9.826   10.922    9.826   10.922
 xc_rho_set_and_dset_create          72 10.0    0.174    0.215    9.501   10.625
 transfer_pw2rs_30                  251 12.0    1.089    1.247    6.156    7.983
 cp2k_distribution_to_z_slices      251 10.4    1.036    1.227    7.011    7.820
 Vh_1c_gg_integrals                 251  9.4    0.037    0.395    2.219    7.609
 gspace_mixing                       70  5.0    0.091    0.130    6.531    6.532
 pw_integral_ab_c1d_c1d_gs          251 10.4    0.685    0.825    2.673    6.170
 transfer_rs2pw_90                  253 11.9    1.032    1.297    4.725    5.896
 rs_grid_zero                      1258 11.9    4.463    4.863    4.463    4.863
 update_ks_atom                     251  8.7    0.102    0.214    2.862    4.290
 mp_bcast_dm                       8032  9.7    2.761    4.237    2.761    4.237
 pw_derive                         2262 11.8    3.760    4.110    3.760    4.110
 transfer_rs2pw_30                  253 11.9    1.412    1.567    3.487    3.754
 pw_copy                           3410 11.0    3.154    3.631    3.154    3.631
 grid_integrate_task_list           251 10.0    0.371    3.565    0.371    3.565
 pw_gather_p                       2520 13.4    2.766    3.559    2.766    3.559
 rs_gather_matrices                 251 10.0    0.005    0.015    1.572    3.451
 calculate_rho_atom_coeff           253  8.9    0.186    0.443    3.355    3.358
 pw_scatter_p                      2585 12.8    2.754    3.280    2.754    3.280
 parallel_gemm_fm                  1662  8.3    0.001    0.002    3.179    3.264
 parallel_gemm_fm_cosma            1662  9.3    3.177    3.262    3.177    3.262
 calculate_rho_atom                 756  9.7    0.978    3.128    0.978    3.128
 broyden_mixing                      70  6.0    2.849    2.894    2.994    3.022
 calculate_xc_2nd_deriv_atom        180  9.0    0.075    0.647    0.221    2.949
 mp_sendrecv_dv                   96646 12.9    2.697    2.916    2.697    2.916
 mp_max_i                           722  5.1    1.198    2.897    1.198    2.897
 mp_sum_dv                        32016  8.8    2.548    2.888    2.548    2.888
 gaVxcgb_GC                         502  9.7    0.145    2.805    0.145    2.805
 pw_copy_to_array                  2520 13.4    1.823    2.701    1.823    2.701
 cp_dbcsr_sm_fm_multiply           1126  8.6    0.014    0.016    2.585    2.659
 pw_poisson_set                     252 10.4    0.005    0.005    2.296    2.390
 qs_scf_new_mos                      71  5.0    0.001    0.001    1.947    1.962
 dbcsr_multiply_generic            1557 10.3    0.038    0.051    1.771    1.867
 calc_screening_functions             1 10.0    1.595    1.623    1.828    1.856
 integrate_four_center_getP         431 10.8    0.113    0.147    1.556    1.780
 eigensolver_symm                    71  6.0    0.005    0.006    1.699    1.706
 pw_axpy                           2698 10.8    1.381    1.680    1.381    1.680
 tddfpt_print_nto_analysis            1  6.0    0.002    0.002    1.654    1.654
 xc_functional_eval                1076 10.9    0.001    0.004    1.030    1.649
 pbe_lda_eval                      1076 11.9    1.029    1.649    1.029    1.649
 pw_zero                           2772 10.6    1.363    1.607    1.363    1.607
 cp_fm_diag_elpa                    122  7.2    0.000    0.000    1.525    1.535
 dbcsr_complete_redistribute       3750 10.5    0.100    0.161    1.377    1.505
 pw_copy_from_array                2585 12.8    1.019    1.438    1.019    1.438
 cp_fm_diag_elpa_base               122  8.3    0.871    1.392    0.882    1.415
 cp_dbcsr_sm_fm_multiply_core      1126  9.6    0.002    0.002    1.261    1.356
 fft_wrap_pw1pw2_30                 504 11.9    0.013    0.017    0.967    1.282
 transfer_rs2pw_10                  253 11.9    0.422    0.524    1.044    1.167
 integrate_four_center_dist_KS      431 10.8    0.085    0.108    1.141    1.147
 transfer_pw2rs_10                  251 12.0    0.292    0.339    1.021    1.131
 cp_fm_redistribute_end             122  8.2    0.563    1.102    0.571    1.108
 mp_alltoall_z11v                  1008 14.9    0.834    1.073    0.834    1.073
 calculate_vxc_atom                  71  8.0    0.029    0.130    1.036    1.037
 copy_fm_to_dbcsr                  2529  9.6    0.007    0.008    0.850    0.986
 mp_alltoall_i22                   4970 11.4    0.867    0.984    0.867    0.984
 copy_dbcsr_to_fm                  1219  9.3    0.009    0.010    0.862    0.954
 multiply_cannon                   1557 11.3    0.092    0.107    0.758    0.866
 mp_irecv_dm3                     10086 12.8    0.255    0.814    0.255    0.814
 mp_rank_compare                   5105 14.1    0.729    0.793    0.729    0.793
 pw_poisson_rebuild                 251 10.4    0.000    0.000    0.735    0.767
 ps_wavelet_create                    1 10.0    0.000    0.000    0.735    0.767
 RS_z_slice_distribution              1 11.0    0.193    0.221    0.735    0.767
 prepare_dr1dr                      900 11.1    0.549    0.742    0.549    0.742
 cp_dbcsr_plus_fm_fm_t              251  8.4    0.002    0.002    0.709    0.726
 cp_fm_geeig                         20  7.0    0.001    0.001    0.698    0.700
 qs_energies_init_hamiltonians        1  3.0    0.000    0.000    0.676    0.676
 build_core_hamiltonian_matrix        1  4.0    0.000    0.000    0.672    0.672
 overlap_condnum                      1  5.0    0.000    0.000    0.668    0.671
 tddfpt_orthonormalize_psi1_psi      10  6.9    0.010    0.011    0.669    0.669
 calculate_rho0_atom                756  9.7    0.624    0.663    0.624    0.663
 tddfpt_compute_residual_vects        8  7.0    0.000    0.001    0.652    0.653
 multiply_cannon_loop              1557 12.3    0.098    0.102    0.534    0.637
 offload_free_buffer                259 10.2    0.426    0.637    0.426    0.637
 arnoldi_conjugate_gradient           7  6.0    0.015    0.018    0.632    0.632
 yz_to_xz                           502 14.0    0.034    0.041    0.404    0.590
 xz_to_yz                           506 13.9    0.027    0.033    0.491    0.575
 make_m2s                          3114 11.3    0.028    0.029    0.492    0.517
 mp_sum_l                          5965 10.6    0.470    0.514    0.470    0.514
 powell_optimize                 286368 11.0    0.412    0.504    0.412    0.504
 mp_isendrecv_dv                 260524 12.3    0.178    0.455    0.178    0.455
 fft_wrap_pw1pw2_10                 504 11.9    0.004    0.005    0.337    0.451
 make_images                       3114 12.3    0.081    0.086    0.424    0.444
 tddfpt_construct_ground_state_       1  6.0    0.000    0.000    0.433    0.442
 init_scf_run                         1  3.0    0.000    0.000    0.416    0.417
 calc_pair_dist_radii                 1 10.0    0.173    0.178    0.352    0.406
 dbcsr_sym_matrix_vector_mult      4977  7.0    0.036    0.038    0.369    0.403
 scf_env_initial_rho_setup            1  4.0    0.000    0.000    0.398    0.398
 tddfpt_apply_energy_diff             9  8.0    0.000    0.000    0.369    0.369
 tddfpt_orthogonalize_psi1_psi0      10  6.9    0.000    0.000    0.309    0.333
 cp_fm_trace_a1b1t1_aa            16500  8.0    0.028    0.030    0.323    0.329
 dbcsr_desymmetrize_deep           1220 10.3    0.017    0.021    0.240    0.316
 multiply_cannon_metrocomm3       37368 13.3    0.052    0.055    0.177    0.305
 scale_and_distribute               502 11.4    0.191    0.286    0.191    0.286
 xc_2nd_deriv_of_r                  720 10.0    0.001    0.034    0.011    0.269
 make_images_sizes                 3114 13.3    0.002    0.002    0.223    0.239
 mp_alltoall_i44                   3114 14.3    0.221    0.237    0.221    0.237
 mp_isend_dv                     147360 13.6    0.171    0.235    0.171    0.235
 cube_transpose_2                   506 13.9    0.009    0.011    0.097    0.206
 mp_irecv_dv                     145876 13.6    0.089    0.197    0.089    0.197
 dbcsr_finalize                   14937 11.3    0.020    0.045    0.121    0.197
 mp_cart_sub                       2442 11.3    0.189    0.192    0.189    0.192
 mp_alltoall_i11v                 12470 11.5    0.077    0.189    0.077    0.189
 tddfpt_is_nonorthogonal_psi1_p       8  7.0    0.000    0.000    0.182    0.182
 dbcsr_rep_row_to_rep_col_vec      4977  8.0    0.012    0.014    0.090    0.175
 mp_cart_create                    1977 10.7    0.157    0.171    0.159    0.174
 pw_scale                           644  9.5    0.107    0.164    0.107    0.164
 create_kernel_env                    1  6.0    0.000    0.000    0.146    0.163
 xc_prep_2nd_deriv                    1  7.0    0.000    0.000    0.146    0.163
 cp_fm_cholesky_decompose            20  8.0    0.159    0.161    0.159    0.161
 dbcsr_col_vec_to_rep_row          4977  8.0    0.016    0.018    0.111    0.161
 calculate_dm_sparse                 71  6.0    0.000    0.000    0.150    0.160
 multiply_cannon_metrocomm1       37368 13.3    0.020    0.021    0.053    0.153
 dbcsr_add_d                       7512  7.0    0.003    0.004    0.027    0.153
 dbcsr_add_anytype                 7512  8.0    0.004    0.020    0.023    0.149
 cp_fm_triangular_invert             20  8.0    0.146    0.146    0.146    0.146
 rs_scatter_matrices                253  9.9    0.002    0.005    0.010    0.137
 rs_grid_create                     257 10.3    0.001    0.002    0.024    0.136
 offload_create_buffer              259 11.3    0.023    0.134    0.023    0.134
 multiply_cannon_multrec          37368 13.3    0.025    0.124    0.029    0.129
 multiply_cannon_metrocomm4       35811 13.3    0.054    0.062    0.098    0.127
 cube_transpose_1                   502 14.0    0.008    0.011    0.066    0.122
 multiply_cannon_metrocomm2       32697 13.3    0.048    0.055    0.080    0.119
 integrate_four_center_load         431 10.8    0.001    0.001    0.079    0.115
 hfx_load_balance                     1 11.0    0.000    0.000    0.079    0.115
 qs_init_subsys                       1  2.0    0.001    0.001    0.113    0.113
 dbcsr_merge_all                  13104 12.3    0.054    0.083    0.079    0.111
 qs_env_setup                         1  3.0    0.000    0.000    0.106    0.106
 qs_env_rebuild_pw_env                2  3.5    0.000    0.000    0.105    0.106
 pw_env_rebuild                       1  5.0    0.000    0.000    0.105    0.105
 dbcsr_create_new                 48517 10.6    0.074    0.077    0.101    0.105
 mp_allgather_i34                  1557 12.3    0.084    0.104    0.084    0.104
 hfx_load_balance_range               1 12.0    0.000    0.000    0.065    0.102
 create_qs_kind_set                   1  2.0    0.000    0.000    0.100    0.100
 read_qs_kind                         3  3.0    0.031    0.047    0.100    0.100
 vxc_of_r_new                       284  9.0    0.000    0.006    0.003    0.096
 cp_fm_symm                          71  7.0    0.091    0.095    0.091    0.095
 cp_fm_redistribute_start           122  8.2    0.053    0.062    0.071    0.093
 cp_fm_triangular_multiply           60  8.0    0.092    0.093    0.092    0.093
 scf_post_calculation_gpw             1  3.0    0.000    0.000    0.087    0.087
 write_available_results              1  4.0    0.000    0.000    0.087    0.087
 write_mo_free_results                1  5.0    0.002    0.003    0.087    0.087
 pw_grid_setup                        4  6.0    0.000    0.000    0.086    0.087
 pw_grid_setup_internal               4  7.0    0.001    0.002    0.086    0.087
 mp_bcast_dv                       5053  9.0    0.060    0.086    0.060    0.086
 write_mo_set_to_restart             71  5.0    0.001    0.049    0.037    0.085
 make_images_data                  3114 13.3    0.020    0.026    0.053    0.084
 dbcsr_iterator_start             84346  9.9    0.049    0.062    0.062    0.079
 dbcsr_copy                       23775  8.1    0.033    0.035    0.066    0.072
 parser_read_line                 12489  4.0    0.002    0.002    0.069    0.070
 parser_read_line_low                22  5.0    0.002    0.014    0.067    0.068
 broadcast_input_information         22  6.0    0.007    0.008    0.065    0.066
 cp_fm_write_unformatted             24  7.0    0.054    0.054    0.054    0.061
 hybrid_alltoall_any               4334 13.5    0.020    0.024    0.035    0.058
 copy_fm_to_dbcsr_bc               2529 10.6    0.014    0.016    0.049    0.054
 pw_grid_sort                         4  8.0    0.035    0.036    0.048    0.053
 tddfpt_compute_ritz_vects            9  7.0    0.004    0.004    0.052    0.053
 mp_bcast_i_src                      88  7.0    0.039    0.049    0.039    0.049
 dbcsr_iterator_stop              84346  9.9    0.034    0.040    0.042    0.049
 dbcsr_work_create                20552 12.3    0.019    0.030    0.029    0.048
 mp_bcast_b_src                     193  7.8    0.038    0.046    0.038    0.046
 write_mo_set_low                     4  6.0    0.000    0.000    0.036    0.043
 dbcsr_data_new                  142296 12.3    0.034    0.042    0.034    0.042
 -------------------------------------------------------------------------------

 The number of warnings for this run is : 1
 
 -------------------------------------------------------------------------------
  **** **** ******  **  PROGRAM ENDED AT                 2025-03-28 14:05:58.310
 ***** ** ***  *** **   PROGRAM RAN ON                     n2cn0708.ab2021.local
 **    ****   ******    PROGRAM RAN BY                                  metdyn02
 ***** **    ** ** **   PROGRAM PROCESS ID                                695336
  **** **  *******  **  PROGRAM STOPPED IN /scratch/hpc-prf-metdyn/metdyn02_Remi
                                           /10_MOL/05_MOL/aUKBqsEOTmq69kFe5R_nOg
                                           /5k_set_final_qzvp/OPUSAU/DZVP/TDDFT/
                                           1e-4
