 DBCSR| CPU Multiplication driver                                           BLAS (U)
 DBCSR| Multrec recursion limit                                              512 (U)
 DBCSR| Multiplication stack size                                           1000 (D)
 DBCSR| Maximum elements for images                                    UNLIMITED (U)
 DBCSR| Multiplicative factor virtual images                                   1 (U)
 DBCSR| Use multiplication densification                                       T (D)
 DBCSR| Multiplication size stacks                                             3 (U)
 DBCSR| Use memory pool for CPU allocation                                     F (U)
 DBCSR| Number of 3D layers                                               SINGLE (U)
 DBCSR| Use MPI memory allocation                                              F (U)
 DBCSR| Use RMA algorithm                                                      F (U)
 DBCSR| Use Communication thread                                               T (U)
 DBCSR| Communication thread load                                             75 (D)
 DBCSR| MPI: My process id                                                     0
 DBCSR| MPI: Number of processes                                              96
 DBCSR| OMP: Current number of threads                                         4
 DBCSR| OMP: Max number of threads                                             4
 DBCSR| Split modifier for TAS multiplication algorithm                  1.0E+00 (U)


  **** **** ******  **  PROGRAM STARTED AT               2025-04-28 08:25:29.530
 ***** ** ***  *** **   PROGRAM STARTED ON                          i03r06c06s12
 **    ****   ******    PROGRAM STARTED BY                               di38fab
 ***** **    ** ** **   PROGRAM PROCESS ID                               2230474
  **** **  *******  **  PROGRAM STARTED IN /hppfs/scratch/04/di38fab/07_MOL_non_
                                           aug/05_MOL_non_aug/05_MOL/W4-11+ALK/n
                                           h2cl/cc-pVTZ/TDDFT

 CP2K| version string:                 CP2K version 2025.1 (Development Version)
 CP2K| source code revision number:                             unknown revision
 CP2K| cp2kflags: omp libint fftw3 libxc parallel scalapack max_contr=4         
 CP2K| is freely available from                            https://www.cp2k.org/
 CP2K| Program compiled at                         Thu Apr 10 16:20:23 CEST 2025
 CP2K| Program compiled on                                               login01
 CP2K| Program compiled for                                        Supermuc-foss
 CP2K| Data directory path                  /hppfs/work/pn36zo/di38fab/cp2k/data
 CP2K| Input file name                                                    GW.inp

 GLOBAL| Force Environment number                                              1
 GLOBAL| Basis set file name            /hppfs/scratch/04/di38fab/04_TMD/BASIS_A
 GLOBAL| Potential file name            /hppfs/work/pn36zo/di38fab/cp2k/data/ALL
 GLOBAL| MM Potential file name                                     MM_POTENTIAL
 GLOBAL| Coordinate file name                                      __STD_INPUT__
 GLOBAL| Method name                                                        CP2K
 GLOBAL| Project name                                                       MoS2
 GLOBAL| Run type                                                         ENERGY
 GLOBAL| FFT library                                                       FFTW3
 GLOBAL| Diagonalization library                                       ScaLAPACK
 GLOBAL| DGEMM library                                                      BLAS
 GLOBAL| Orthonormality check for eigenvectors                          DISABLED
 GLOBAL| Matrix multiplication library                                 ScaLAPACK
 GLOBAL| All-to-all communication in single precision                          F
 GLOBAL| FFTs using library dependent lengths                                  F
 GLOBAL| Grid backend                                                       AUTO
 GLOBAL| Global print level                                               MEDIUM
 GLOBAL| MPI I/O enabled                                                       T
 GLOBAL| Total number of message passing processes                            96
 GLOBAL| Number of threads for this process                                    4
 GLOBAL| This output is from process                                           0
 GLOBAL| OpenMP stack size per thread (OMP_STACKSIZE)                    default
 GLOBAL| CPU model name             Intel(R) Xeon(R) Platinum 8174 CPU @ 3.10GHz

 MEMORY| system memory details [Kb]
 MEMORY|                        rank 0           min           max       average
 MEMORY| MemTotal             98436660      98436660      98436708      98436666
 MEMORY| MemFree              84984508      84684072      85011604      84903724
 MEMORY| Buffers                     0             0             0             0
 MEMORY| Cached                2393244       2373868       2399500       2385835
 MEMORY| Slab                  1085068       1085068       1110920       1099856
 MEMORY| SReclaimable           252272        249684        259180        254958
 MEMORY| MemLikelyFree        87630024      87341520      87637580      87544518


 *** Fundamental physical constants (SI units) ***

 *** Literature: B. J. Mohr and B. N. Taylor,
 ***             CODATA recommended values of the fundamental physical
 ***             constants: 2006, Web Version 5.1
 ***             http://physics.nist.gov/constants

 Speed of light in vacuum [m/s]                             2.99792458000000E+08
 Magnetic constant or permeability of vacuum [N/A**2]       1.25663706143592E-06
 Electric constant or permittivity of vacuum [F/m]          8.85418781762039E-12
 Planck constant (h) [J*s]                                  6.62606896000000E-34
 Planck constant (h-bar) [J*s]                              1.05457162825177E-34
 Elementary charge [C]                                      1.60217648700000E-19
 Electron mass [kg]                                         9.10938215000000E-31
 Electron g factor [ ]                                     -2.00231930436220E+00
 Proton mass [kg]                                           1.67262163700000E-27
 Fine-structure constant                                    7.29735253760000E-03
 Rydberg constant [1/m]                                     1.09737315685270E+07
 Avogadro constant [1/mol]                                  6.02214179000000E+23
 Boltzmann constant [J/K]                                   1.38065040000000E-23
 Atomic mass unit [kg]                                      1.66053878200000E-27
 Bohr radius [m]                                            5.29177208590000E-11

 *** Conversion factors ***

 [u] -> [a.u.]                                              1.82288848426455E+03
 [Angstrom] -> [Bohr] = [a.u.]                              1.88972613288564E+00
 [a.u.] = [Bohr] -> [Angstrom]                              5.29177208590000E-01
 [a.u.] -> [s]                                              2.41888432650478E-17
 [a.u.] -> [fs]                                             2.41888432650478E-02
 [a.u.] -> [J]                                              4.35974393937059E-18
 [a.u.] -> [N]                                              8.23872205491840E-08
 [a.u.] -> [K]                                              3.15774647902944E+05
 [a.u.] -> [kJ/mol]                                         2.62549961709828E+03
 [a.u.] -> [kcal/mol]                                       6.27509468713739E+02
 [a.u.] -> [Pa]                                             2.94210107994716E+13
 [a.u.] -> [bar]                                            2.94210107994716E+08
 [a.u.] -> [atm]                                            2.90362800883016E+08
 [a.u.] -> [eV]                                             2.72113838565563E+01
 [a.u.] -> [Hz]                                             6.57968392072181E+15
 [a.u.] -> [1/cm] (wave numbers)                            2.19474631370540E+05
 [a.u./Bohr**2] -> [1/cm]                                   5.14048714338585E+03
 

 CELL_TOP| Volume [angstrom^3]:                                     27000.000000
 CELL_TOP| Vector a [angstrom    30.000     0.000     0.000   |a| =    30.000000
 CELL_TOP| Vector b [angstrom     0.000    30.000     0.000   |b| =    30.000000
 CELL_TOP| Vector c [angstrom     0.000     0.000    30.000   |c| =    30.000000
 CELL_TOP| Angle (b,c), alpha [degree]:                                90.000000
 CELL_TOP| Angle (a,c), beta  [degree]:                                90.000000
 CELL_TOP| Angle (a,b), gamma [degree]:                                90.000000
 CELL_TOP| Numerically orthorhombic:                                         YES
 CELL_TOP| Periodicity                                                      NONE

 GENERATE|  Preliminary Number of Bonds generated:                             0
 GENERATE|  Achieved consistency in connectivity generation.

 CELL| Volume [angstrom^3]:                                         27000.000000
 CELL| Vector a [angstrom]:      30.000     0.000     0.000   |a| =    30.000000
 CELL| Vector b [angstrom]:       0.000    30.000     0.000   |b| =    30.000000
 CELL| Vector c [angstrom]:       0.000     0.000    30.000   |c| =    30.000000
 CELL| Angle (b,c), alpha [degree]:                                    90.000000
 CELL| Angle (a,c), beta  [degree]:                                    90.000000
 CELL| Angle (a,b), gamma [degree]:                                    90.000000
 CELL| Numerically orthorhombic:                                             YES
 CELL| Periodicity                                                          NONE

 CELL_REF| Volume [angstrom^3]:                                     27000.000000
 CELL_REF| Vector a [angstrom    30.000     0.000     0.000   |a| =    30.000000
 CELL_REF| Vector b [angstrom     0.000    30.000     0.000   |b| =    30.000000
 CELL_REF| Vector c [angstrom     0.000     0.000    30.000   |c| =    30.000000
 CELL_REF| Angle (b,c), alpha [degree]:                                90.000000
 CELL_REF| Angle (a,c), beta  [degree]:                                90.000000
 CELL_REF| Angle (a,b), gamma [degree]:                                90.000000
 CELL_REF| Numerically orthorhombic:                                         YES
 CELL_REF| Periodicity                                                      NONE

 *******************************************************************************
 *******************************************************************************
 **                                                                           **
 **     #####                         ##              ##                      **
 **    ##   ##            ##          ##              ##                      **
 **   ##     ##                       ##            ######                    **
 **   ##     ##  ##   ##  ##   #####  ##  ##   ####   ##    #####    #####    **
 **   ##     ##  ##   ##  ##  ##      ## ##   ##      ##   ##   ##  ##   ##   **
 **   ##  ## ##  ##   ##  ##  ##      ####     ###    ##   ######   ######    **
 **    ##  ###   ##   ##  ##  ##      ## ##      ##   ##   ##       ##        **
 **     #######   #####   ##   #####  ##  ##  ####    ##    #####   ##        **
 **           ##                                                    ##        **
 **                                                                           **
 **                                                ... make the atoms dance   **
 **                                                                           **
 **            Copyright (C) by CP2K developers group (2000-2025)             **
 **                      J. Chem. Phys. 152, 194103 (2020)                    **
 **                                                                           **
 *******************************************************************************

 DFT| Spin restricted Kohn-Sham (RKS) calculation                            RKS
 DFT| Multiplicity                                                             1
 DFT| Number of spin states                                                    1
 DFT| Charge                                                                   0
 DFT| Self-interaction correction (SIC)                                       NO
 DFT| Cutoffs: density                                              1.000000E-10
 DFT|          gradient                                             1.000000E-10
 DFT|          tau                                                  1.000000E-10
 DFT|          cutoff_smoothing_range                               0.000000E+00
 DFT| XC density smoothing                                                  NONE
 DFT| XC derivatives                                                          PW

 FUNCTIONAL| PBE:
 FUNCTIONAL| J.P.Perdew, K.Burke, M.Ernzerhof, Phys. Rev. Letter, vol. 77, n 18,
 FUNCTIONAL|  pp. 3865-3868, (1996)sx=0.750sc=1.000{spin unpolarized}           


 QS| Method:                                                                GAPW
 QS| Density plane wave grid type                        NON-SPHERICAL FULLSPACE
 QS| Number of grid levels:                                                    4
 QS| Density cutoff [a.u.]:                                                250.0
 QS| Multi grid cutoff [a.u.]: 1) grid level                               250.0
 QS|                           2) grid level                                83.3
 QS|                           3) grid level                                27.8
 QS|                           4) grid level                                 9.3
 QS| Grid level progression factor:                                          3.0
 QS| Relative density cutoff [a.u.]:                                        50.0
 QS| Interaction thresholds: eps_pgf_orb:                                1.0E-12
 QS|                         eps_filter_matrix:                          0.0E+00
 QS|                         eps_core_charge:                            1.0E-14
 QS|                         eps_rho_gspace:                             1.0E-12
 QS|                         eps_rho_rspace:                             1.0E-12
 QS|                         eps_gvg_rspace:                             1.0E-06
 QS|                         eps_ppl:                                    1.0E-02
 QS|                         eps_ppnl:                                   1.0E-08
 QS| GAPW|      One center basis from orbital basis primitives
 QS| GAPW|                   eps_fit:                                    1.0E-04
 QS| GAPW|                   eps_iso:                                    1.0E-12
 QS| GAPW|                   eps_svd:                                    1.0E-08
 QS| GAPW|                   eps_cpc:                                    1.0E-12
 QS| GAPW|   atom-r-grid: quadrature:                                     GC_LOG
 QS| GAPW|      atom-s-grid:  max l :                                          6
 QS| GAPW|      max_l_rho0 :                                                   2


 ATOMIC KIND INFORMATION

  1. Atomic kind: N                                     Number of atoms:       1

     Orbital Basis Set                                                   cc-pVTZ

       Number of orbital shell sets:                                           4
       Number of orbital shells:                                              10
       Number of primitive Cartesian functions:                               18
       Number of Cartesian basis functions:                                   35
       Number of spherical basis functions:                                   30
       Norm type:                                                              2

       Normalised Cartesian orbitals:

                        Set   Shell   Orbital            Exponent    Coefficient

                          1       1    1px              26.630000       0.000000
                                                         5.948000       0.000000
                                                         1.742000       0.000000
                                                         0.555000       0.682820
                                                         0.172500       0.000000
                          1       1    1py              26.630000       0.000000
                                                         5.948000       0.000000
                                                         1.742000       0.000000
                                                         0.555000       0.682820
                                                         0.172500       0.000000
                          1       1    1pz              26.630000       0.000000
                                                         5.948000       0.000000
                                                         1.742000       0.000000
                                                         0.555000       0.682820
                                                         0.172500       0.000000

                          1       2    2px              26.630000       1.264982
                                                         5.948000       1.215000
                                                         1.742000       0.852042
                                                         0.555000       0.340377
                                                         0.172500       0.053406
                          1       2    2py              26.630000       1.264982
                                                         5.948000       1.215000
                                                         1.742000       0.852042
                                                         0.555000       0.340377
                                                         0.172500       0.053406
                          1       2    2pz              26.630000       1.264982
                                                         5.948000       1.215000
                                                         1.742000       0.852042
                                                         0.555000       0.340377
                                                         0.172500       0.053406

                          1       3    3px              26.630000       0.000000
                                                         5.948000       0.000000
                                                         1.742000       0.000000
                                                         0.555000       0.000000
                                                         0.172500       0.158462
                          1       3    3py              26.630000       0.000000
                                                         5.948000       0.000000
                                                         1.742000       0.000000
                                                         0.555000       0.000000
                                                         0.172500       0.158462
                          1       3    3pz              26.630000       0.000000
                                                         5.948000       0.000000
                                                         1.742000       0.000000
                                                         0.555000       0.000000
                                                         0.172500       0.158462

                          2       1    1s            11420.000000       0.411776
                                                      1712.000000       0.767284
                                                       389.300000       1.297670
                                                       110.000000       1.954219
                                                        35.570000       2.419449
                                                        12.540000       2.058842
                                                         4.644000       0.783427
                                                         1.293000       0.035658
                                                         0.511800      -0.003669
                                                         0.178700       0.000467

                          2       2    2s            11420.000000       0.000000
                                                      1712.000000       0.000000
                                                       389.300000       0.000000
                                                       110.000000       0.000000
                                                        35.570000       0.000000
                                                        12.540000       0.000000
                                                         4.644000       0.000000
                                                         1.293000       0.864190
                                                         0.511800       0.000000
                                                         0.178700       0.000000

                          2       3    3s            11420.000000      -0.090544
                                                      1712.000000      -0.169770
                                                       389.300000      -0.288829
                                                       110.000000      -0.448521
                                                        35.570000      -0.595214
                                                        12.540000      -0.627274
                                                         4.644000      -0.388950
                                                         1.293000       0.131196
                                                         0.511800       0.258729
                                                         0.178700       0.075898

                          2       4    4s            11420.000000       0.000000
                                                      1712.000000       0.000000
                                                       389.300000       0.000000
                                                       110.000000       0.000000
                                                        35.570000       0.000000
                                                        12.540000       0.000000
                                                         4.644000       0.000000
                                                         1.293000       0.000000
                                                         0.511800       0.000000
                                                         0.178700       0.195886

                          3       1    1dx2              1.654000       3.970513
                                                         0.469000       0.000000
                          3       1    1dxy              1.654000       6.877130
                                                         0.469000       0.000000
                          3       1    1dxz              1.654000       6.877130
                                                         0.469000       0.000000
                          3       1    1dy2              1.654000       3.970513
                                                         0.469000       0.000000
                          3       1    1dyz              1.654000       6.877130
                                                         0.469000       0.000000
                          3       1    1dz2              1.654000       3.970513
                                                         0.469000       0.000000

                          3       2    2dx2              1.654000       0.000000
                                                         0.469000       0.437484
                          3       2    2dxy              1.654000       0.000000
                                                         0.469000       0.757744
                          3       2    2dxz              1.654000       0.000000
                                                         0.469000       0.757744
                          3       2    2dy2              1.654000       0.000000
                                                         0.469000       0.437484
                          3       2    2dyz              1.654000       0.000000
                                                         0.469000       0.757744
                          3       2    2dz2              1.654000       0.000000
                                                         0.469000       0.437484

                          4       1    1fx3              1.093000       1.798249
                          4       1    1fx2y             1.093000       4.021007
                          4       1    1fx2z             1.093000       4.021007
                          4       1    1fxy2             1.093000       4.021007
                          4       1    1fxyz             1.093000       6.964588
                          4       1    1fxz2             1.093000       4.021007
                          4       1    1fy3              1.093000       1.798249
                          4       1    1fy2z             1.093000       4.021007
                          4       1    1fyz2             1.093000       4.021007
                          4       1    1fz3              1.093000       1.798249

     RI Auxiliary Basis Set                                        cc-pVTZ-RIFIT

       Number of orbital shell sets:                                          23
       Number of orbital shells:                                              23
       Number of primitive Cartesian functions:                               23
       Number of Cartesian basis functions:                                  101
       Number of spherical basis functions:                                   81
       Norm type:                                                              2

       Normalised Cartesian orbitals:

                        Set   Shell   Orbital            Exponent    Coefficient

                          1       1    1s                0.311588       0.297232

                          2       1    1px               0.373533       0.416247
                          2       1    1py               0.373533       0.416247
                          2       1    1pz               0.373533       0.416247

                          3       1    1dx2              0.419484       0.359883
                          3       1    1dxy              0.419484       0.623335
                          3       1    1dxz              0.419484       0.623335
                          3       1    1dy2              0.419484       0.359883
                          3       1    1dyz              0.419484       0.623335
                          3       1    1dz2              0.419484       0.359883

                          4       1    1s                0.766748       0.583982

                          5       1    1dx2              0.837683       1.207255
                          5       1    1dxy              0.837683       2.091027
                          5       1    1dxz              0.837683       2.091027
                          5       1    1dy2              0.837683       1.207255
                          5       1    1dyz              0.837683       2.091027
                          5       1    1dz2              0.837683       1.207255

                          6       1    1fx3              0.846776       1.012591
                          6       1    1fx2y             0.846776       2.264223
                          6       1    1fx2z             0.846776       2.264223
                          6       1    1fxy2             0.846776       2.264223
                          6       1    1fxyz             0.846776       3.921748
                          6       1    1fxz2             0.846776       2.264223
                          6       1    1fy3              0.846776       1.012591
                          6       1    1fy2z             0.846776       2.264223
                          6       1    1fyz2             0.846776       2.264223
                          6       1    1fz3              0.846776       1.012591

                          7       1    1px               0.850834       1.164786
                          7       1    1py               0.850834       1.164786
                          7       1    1pz               0.850834       1.164786

                          8       1    1s                1.222668       0.828689

                          9       1    1px               1.407740       2.185714
                          9       1    1py               1.407740       2.185714
                          9       1    1pz               1.407740       2.185714

                         10       1    1fx3              1.558946       3.997832
                         10       1    1fx2y             1.558946       8.939425
                         10       1    1fx2z             1.558946       8.939425
                         10       1    1fxy2             1.558946       8.939425
                         10       1    1fxyz             1.558946      15.483538
                         10       1    1fxz2             1.558946       8.939425
                         10       1    1fy3              1.558946       3.997832
                         10       1    1fy2z             1.558946       8.939425
                         10       1    1fyz2             1.558946       8.939425
                         10       1    1fz3              1.558946       3.997832

                         11       1    1gx4              1.776407       5.403523
                         11       1    1gx3y             1.776407      14.296377
                         11       1    1gx3z             1.776407      14.296377
                         11       1    1gx2y2            1.776407      18.456544
                         11       1    1gx2yz            1.776407      31.967672
                         11       1    1gx2z2            1.776407      18.456544
                         11       1    1gxy3             1.776407      14.296377
                         11       1    1gxy2z            1.776407      31.967672
                         11       1    1gxyz2            1.776407      31.967672
                         11       1    1gxz3             1.776407      14.296377
                         11       1    1gy4              1.776407       5.403523
                         11       1    1gy3z             1.776407      14.296377
                         11       1    1gy2z2            1.776407      18.456544
                         11       1    1gyz3             1.776407      14.296377
                         11       1    1gz4              1.776407       5.403523

                         12       1    1dx2              2.210185       6.594160
                         12       1    1dxy              2.210185      11.421421
                         12       1    1dxz              2.210185      11.421421
                         12       1    1dy2              2.210185       6.594160
                         12       1    1dyz              2.210185      11.421421
                         12       1    1dz2              2.210185       6.594160

                         13       1    1s                2.431967       1.387965

                         14       1    1px               2.898158       5.390049
                         14       1    1py               2.898158       5.390049
                         14       1    1pz               2.898158       5.390049

                         15       1    1fx3              3.473067      24.241470
                         15       1    1fx2y             3.473067      54.205574
                         15       1    1fx2z             3.473067      54.205574
                         15       1    1fxy2             3.473067      54.205574
                         15       1    1fxyz             3.473067      93.886808
                         15       1    1fxz2             3.473067      54.205574
                         15       1    1fy3              3.473067      24.241470
                         15       1    1fy2z             3.473067      54.205574
                         15       1    1fyz2             3.473067      54.205574
                         15       1    1fz3              3.473067      24.241470

                         16       1    1dx2              4.584723      23.643264
                         16       1    1dxy              4.584723      40.951334
                         16       1    1dxz              4.584723      40.951334
                         16       1    1dy2              4.584723      23.643264
                         16       1    1dyz              4.584723      40.951334
                         16       1    1dz2              4.584723      23.643264

                         17       1    1s                7.906874       3.360576

                         18       1    1px              10.323897      26.378169
                         18       1    1py              10.323897      26.378169
                         18       1    1pz              10.323897      26.378169

                         19       1    1dx2             13.908637     164.876008
                         19       1    1dxy             13.908637     285.573622
                         19       1    1dxz             13.908637     285.573622
                         19       1    1dy2             13.908637     164.876008
                         19       1    1dyz             13.908637     285.573622
                         19       1    1dz2             13.908637     164.876008

                         20       1    1s               21.681924       7.161161

                         21       1    1px              34.965027     121.194365
                         21       1    1py              34.965027     121.194365
                         21       1    1pz              34.965027     121.194365

                         22       1    1s               64.276031      16.178821

                         23       1    1s              287.509269      49.762132

       Atomic covalent radius [Angstrom]:                                  0.750

       Atomic van der Waals radius [Angstrom]:                             1.550

     The atoms of this atomic kind are PAW atoms (GAPW):
       Hard Gaussian function radius:                                      1.512
       Rho0 radius:                                                        1.512
       Maximum GTO radius used for PAW projector construction:            24.566

     GAPW Soft Basis Set                                            cc-pVTZ_soft

       Number of orbital shell sets:                                           4
       Number of orbital shells:                                              10
       Number of primitive Cartesian functions:                                9
       Number of Cartesian basis functions:                                   35
       Number of spherical basis functions:                                   30
       Norm type:                                                              2

       Normalised Cartesian orbitals:

                        Set   Shell   Orbital            Exponent    Coefficient

                          1       1    1px               1.742000       0.000000
                                                         0.555000       0.682820
                                                         0.172500       0.000000
                          1       1    1py               1.742000       0.000000
                                                         0.555000       0.682820
                                                         0.172500       0.000000
                          1       1    1pz               1.742000       0.000000
                                                         0.555000       0.682820
                                                         0.172500       0.000000

                          1       2    2px               1.742000       0.852042
                                                         0.555000       0.340377
                                                         0.172500       0.053406
                          1       2    2py               1.742000       0.852042
                                                         0.555000       0.340377
                                                         0.172500       0.053406
                          1       2    2pz               1.742000       0.852042
                                                         0.555000       0.340377
                                                         0.172500       0.053406

                          1       3    3px               1.742000       0.000000
                                                         0.555000       0.000000
                                                         0.172500       0.158462
                          1       3    3py               1.742000       0.000000
                                                         0.555000       0.000000
                                                         0.172500       0.158462
                          1       3    3pz               1.742000       0.000000
                                                         0.555000       0.000000
                                                         0.172500       0.158462

                          2       1    1s                1.293000       0.035658
                                                         0.511800      -0.003669
                                                         0.178700       0.000467

                          2       2    2s                1.293000       0.864190
                                                         0.511800       0.000000
                                                         0.178700       0.000000

                          2       3    3s                1.293000       0.131196
                                                         0.511800       0.258729
                                                         0.178700       0.075898

                          2       4    4s                1.293000       0.000000
                                                         0.511800       0.000000
                                                         0.178700       0.195886

                          3       1    1dx2              1.654000       3.970513
                                                         0.469000       0.000000
                          3       1    1dxy              1.654000       6.877130
                                                         0.469000       0.000000
                          3       1    1dxz              1.654000       6.877130
                                                         0.469000       0.000000
                          3       1    1dy2              1.654000       3.970513
                                                         0.469000       0.000000
                          3       1    1dyz              1.654000       6.877130
                                                         0.469000       0.000000
                          3       1    1dz2              1.654000       3.970513
                                                         0.469000       0.000000

                          3       2    2dx2              1.654000       0.000000
                                                         0.469000       0.437484
                          3       2    2dxy              1.654000       0.000000
                                                         0.469000       0.757744
                          3       2    2dxz              1.654000       0.000000
                                                         0.469000       0.757744
                          3       2    2dy2              1.654000       0.000000
                                                         0.469000       0.437484
                          3       2    2dyz              1.654000       0.000000
                                                         0.469000       0.757744
                          3       2    2dz2              1.654000       0.000000
                                                         0.469000       0.437484

                          4       1    1fx3              1.093000       1.798249
                          4       1    1fx2y             1.093000       4.021007
                          4       1    1fx2z             1.093000       4.021007
                          4       1    1fxy2             1.093000       4.021007
                          4       1    1fxyz             1.093000       6.964588
                          4       1    1fxz2             1.093000       4.021007
                          4       1    1fy3              1.093000       1.798249
                          4       1    1fy2z             1.093000       4.021007
                          4       1    1fyz2             1.093000       4.021007
                          4       1    1fz3              1.093000       1.798249

     AE Potential information for                                            ALL

       Description:                                       All-electron potential
                                          Krack, Parrinello, PCCP 2, 2105 (2000)

       Gaussian exponent of the core charge distribution:               5.979100
       Electronic configuration (s p d ...):                           4   3   0

  2. Atomic kind: H                                     Number of atoms:       2

     Orbital Basis Set                                                   cc-pVTZ

       Number of orbital shell sets:                                           3
       Number of orbital shells:                                               6
       Number of primitive Cartesian functions:                                8
       Number of Cartesian basis functions:                                   15
       Number of spherical basis functions:                                   14
       Norm type:                                                              2

       Normalised Cartesian orbitals:

                        Set   Shell   Orbital            Exponent    Coefficient

                          1       1    1s               33.870000       0.000000
                                                         5.095000       0.000000
                                                         1.159000       0.000000
                                                         0.325800       0.307343
                                                         0.102700       0.000000

                          1       2    2s               33.870000       0.060718
                                                         5.095000       0.109507
                                                         1.159000       0.161468
                                                         0.325800       0.154871
                                                         0.102700       0.049575

                          1       3    3s               33.870000       0.000000
                                                         5.095000       0.000000
                                                         1.159000       0.000000
                                                         0.325800       0.000000
                                                         0.102700       0.129297

                          2       1    1px               1.407000       2.184277
                                                         0.388000       0.000000
                          2       1    1py               1.407000       2.184277
                                                         0.388000       0.000000
                          2       1    1pz               1.407000       2.184277
                                                         0.388000       0.000000

                          2       2    2px               1.407000       0.000000
                                                         0.388000       0.436495
                          2       2    2py               1.407000       0.000000
                                                         0.388000       0.436495
                          2       2    2pz               1.407000       0.000000
                                                         0.388000       0.436495

                          3       1    1dx2              1.057000       1.813597
                          3       1    1dxy              1.057000       3.141241
                          3       1    1dxz              1.057000       3.141241
                          3       1    1dy2              1.057000       1.813597
                          3       1    1dyz              1.057000       3.141241
                          3       1    1dz2              1.057000       1.813597

     RI Auxiliary Basis Set                                        cc-pVTZ-RIFIT

       Number of orbital shell sets:                                          10
       Number of orbital shells:                                              10
       Number of primitive Cartesian functions:                               10
       Number of Cartesian basis functions:                                   35
       Number of spherical basis functions:                                   30
       Norm type:                                                              2

       Normalised Cartesian orbitals:

                        Set   Shell   Orbital            Exponent    Coefficient

                          1       1    1s                0.289740       0.281460

                          2       1    1s                0.526184       0.440315

                          3       1    1px               0.603822       0.758711
                          3       1    1py               0.603822       0.758711
                          3       1    1pz               0.603822       0.758711

                          4       1    1dx2              1.143973       2.082748
                          4       1    1dxy              1.143973       3.607426
                          4       1    1dxz              1.143973       3.607426
                          4       1    1dy2              1.143973       2.082748
                          4       1    1dyz              1.143973       3.607426
                          4       1    1dz2              1.143973       2.082748

                          5       1    1px               1.180408       1.753802
                          5       1    1py               1.180408       1.753802
                          5       1    1pz               1.180408       1.753802

                          6       1    1fx3              1.806306       5.568458
                          6       1    1fx2y             1.806306      12.451451
                          6       1    1fx2z             1.806306      12.451451
                          6       1    1fxy2             1.806306      12.451451
                          6       1    1fxyz             1.806306      21.566546
                          6       1    1fxz2             1.806306      12.451451
                          6       1    1fy3              1.806306       5.568458
                          6       1    1fy2z             1.806306      12.451451
                          6       1    1fyz2             1.806306      12.451451
                          6       1    1fz3              1.806306       5.568458

                          7       1    1dx2              1.809637       4.647235
                          7       1    1dxy              1.809637       8.049248
                          7       1    1dxz              1.809637       8.049248
                          7       1    1dy2              1.809637       4.647235
                          7       1    1dyz              1.809637       8.049248
                          7       1    1dz2              1.809637       4.647235

                          8       1    1s                1.873089       1.141114

                          9       1    1px               2.372549       4.197195
                          9       1    1py               2.372549       4.197195
                          9       1    1pz               2.372549       4.197195

                         10       1    1s                8.512828       3.551939

       Atomic covalent radius [Angstrom]:                                  0.320

       Atomic van der Waals radius [Angstrom]:                             1.090

     The atoms of this atomic kind are PAW atoms (GAPW):
       Hard Gaussian function radius:                                      1.200
       Rho0 radius:                                                        1.200
       Maximum GTO radius used for PAW projector construction:            24.566

     GAPW Soft Basis Set                                            cc-pVTZ_soft

       Number of orbital shell sets:                                           3
       Number of orbital shells:                                               6
       Number of primitive Cartesian functions:                                7
       Number of Cartesian basis functions:                                   15
       Number of spherical basis functions:                                   14
       Norm type:                                                              2

       Normalised Cartesian orbitals:

                        Set   Shell   Orbital            Exponent    Coefficient

                          1       1    1s                5.095000       0.000000
                                                         1.159000       0.000000
                                                         0.325800       0.307343
                                                         0.102700       0.000000

                          1       2    2s                5.095000       0.109507
                                                         1.159000       0.161468
                                                         0.325800       0.154871
                                                         0.102700       0.049575

                          1       3    3s                5.095000       0.000000
                                                         1.159000       0.000000
                                                         0.325800       0.000000
                                                         0.102700       0.129297

                          2       1    1px               1.407000       2.184277
                                                         0.388000       0.000000
                          2       1    1py               1.407000       2.184277
                                                         0.388000       0.000000
                          2       1    1pz               1.407000       2.184277
                                                         0.388000       0.000000

                          2       2    2px               1.407000       0.000000
                                                         0.388000       0.436495
                          2       2    2py               1.407000       0.000000
                                                         0.388000       0.436495
                          2       2    2pz               1.407000       0.000000
                                                         0.388000       0.436495

                          3       1    1dx2              1.057000       1.813597
                          3       1    1dxy              1.057000       3.141241
                          3       1    1dxz              1.057000       3.141241
                          3       1    1dy2              1.057000       1.813597
                          3       1    1dyz              1.057000       3.141241
                          3       1    1dz2              1.057000       1.813597

     AE Potential information for                                            ALL

       Description:                                       All-electron potential
                                          Krack, Parrinello, PCCP 2, 2105 (2000)

       Gaussian exponent of the core charge distribution:              12.500000
       Electronic configuration (s p d ...):                           1   0   0

  3. Atomic kind: CL                                    Number of atoms:       1

     Orbital Basis Set                                                   cc-pVTZ

       Number of orbital shell sets:                                           4
       Number of orbital shells:                                              12
       Number of primitive Cartesian functions:                               27
       Number of Cartesian basis functions:                                   39
       Number of spherical basis functions:                                   34
       Norm type:                                                              2

       Normalised Cartesian orbitals:

                        Set   Shell   Orbital            Exponent    Coefficient

                          1       1    1px             663.300000      11.537157
                                                       156.800000      15.197025
                                                        49.980000      16.765879
                                                        18.420000      13.925990
                                                         7.240000       7.396431
                                                         2.922000       1.907755
                                                         1.022000       0.085758
                                                         0.381800      -0.001961
                                                         0.130100       0.000253
                          1       1    1py             663.300000      11.537157
                                                       156.800000      15.197025
                                                        49.980000      16.765879
                                                        18.420000      13.925990
                                                         7.240000       7.396431
                                                         2.922000       1.907755
                                                         1.022000       0.085758
                                                         0.381800      -0.001961
                                                         0.130100       0.000253
                          1       1    1pz             663.300000      11.537157
                                                       156.800000      15.197025
                                                        49.980000      16.765879
                                                        18.420000      13.925990
                                                         7.240000       7.396431
                                                         2.922000       1.907755
                                                         1.022000       0.085758
                                                         0.381800      -0.001961
                                                         0.130100       0.000253

                          1       2    2px             663.300000       0.000000
                                                       156.800000       0.000000
                                                        49.980000       0.000000
                                                        18.420000       0.000000
                                                         7.240000       0.000000
                                                         2.922000       0.000000
                                                         1.022000       1.464717
                                                         0.381800       0.000000
                                                         0.130100       0.000000
                          1       2    2py             663.300000       0.000000
                                                       156.800000       0.000000
                                                        49.980000       0.000000
                                                        18.420000       0.000000
                                                         7.240000       0.000000
                                                         2.922000       0.000000
                                                         1.022000       1.464717
                                                         0.381800       0.000000
                                                         0.130100       0.000000
                          1       2    2pz             663.300000       0.000000
                                                       156.800000       0.000000
                                                        49.980000       0.000000
                                                        18.420000       0.000000
                                                         7.240000       0.000000
                                                         2.922000       0.000000
                                                         1.022000       1.464717
                                                         0.381800       0.000000
                                                         0.130100       0.000000

                          1       3    3px             663.300000      -3.129115
                                                       156.800000      -4.108299
                                                        49.980000      -4.677601
                                                        18.420000      -3.960800
                                                         7.240000      -2.268899
                                                         2.922000      -0.516096
                                                         1.022000       0.384179
                                                         0.381800       0.241561
                                                         0.130100       0.038007
                          1       3    3py             663.300000      -3.129115
                                                       156.800000      -4.108299
                                                        49.980000      -4.677601
                                                        18.420000      -3.960800
                                                         7.240000      -2.268899
                                                         2.922000      -0.516096
                                                         1.022000       0.384179
                                                         0.381800       0.241561
                                                         0.130100       0.038007
                          1       3    3pz             663.300000      -3.129115
                                                       156.800000      -4.108299
                                                        49.980000      -4.677601
                                                        18.420000      -3.960800
                                                         7.240000      -2.268899
                                                         2.922000      -0.516096
                                                         1.022000       0.384179
                                                         0.381800       0.241561
                                                         0.130100       0.038007

                          1       4    4px             663.300000       0.000000
                                                       156.800000       0.000000
                                                        49.980000       0.000000
                                                        18.420000       0.000000
                                                         7.240000       0.000000
                                                         2.922000       0.000000
                                                         1.022000       0.000000
                                                         0.381800       0.000000
                                                         0.130100       0.111375
                          1       4    4py             663.300000       0.000000
                                                       156.800000       0.000000
                                                        49.980000       0.000000
                                                        18.420000       0.000000
                                                         7.240000       0.000000
                                                         2.922000       0.000000
                                                         1.022000       0.000000
                                                         0.381800       0.000000
                                                         0.130100       0.111375
                          1       4    4pz             663.300000       0.000000
                                                       156.800000       0.000000
                                                        49.980000       0.000000
                                                        18.420000       0.000000
                                                         7.240000       0.000000
                                                         2.922000       0.000000
                                                         1.022000       0.000000
                                                         0.381800       0.000000
                                                         0.130100       0.111375

                          2       1    1s           456100.000000       0.616631
                                                     68330.000000       1.153720
                                                     15550.000000       1.993372
                                                      4405.000000       3.231489
                                                      1439.000000       4.907274
                                                       520.400000       6.820534
                                                       203.100000       8.108631
                                                        83.960000       7.222545
                                                        36.200000       3.585487
                                                        15.830000       0.577679
                                                         6.334000       0.008869
                                                         2.694000       0.001585
                                                         0.976800      -0.000265
                                                         0.431300       0.000059
                                                         0.162500      -0.000009

                          2       2    2s           456100.000000      -0.172998
                                                     68330.000000      -0.323135
                                                     15550.000000      -0.560816
                                                      4405.000000      -0.909977
                                                      1439.000000      -1.408536
                                                       520.400000      -2.016191
                                                       203.100000      -2.631759
                                                        83.960000      -2.804578
                                                        36.200000      -2.096479
                                                        15.830000      -0.110669
                                                         6.334000       1.422047
                                                         2.694000       0.844859
                                                         0.976800       0.055344
                                                         0.431300      -0.003168
                                                         0.162500       0.000424

                          2       3    3s           456100.000000       0.000000
                                                     68330.000000       0.000000
                                                     15550.000000       0.000000
                                                      4405.000000       0.000000
                                                      1439.000000       0.000000
                                                       520.400000       0.000000
                                                       203.100000       0.000000
                                                        83.960000       0.000000
                                                        36.200000       0.000000
                                                        15.830000       0.000000
                                                         6.334000       0.000000
                                                         2.694000       0.000000
                                                         0.976800       0.700268
                                                         0.431300       0.000000
                                                         0.162500       0.000000

                          2       4    4s           456100.000000       0.052354
                                                     68330.000000       0.097711
                                                     15550.000000       0.169813
                                                      4405.000000       0.275217
                                                      1439.000000       0.427455
                                                       520.400000       0.612341
                                                       203.100000       0.808540
                                                        83.960000       0.874271
                                                        36.200000       0.685440
                                                        15.830000       0.034107
                                                         6.334000      -0.587595
                                                         2.694000      -0.608270
                                                         0.976800       0.053189
                                                         0.431300       0.275251
                                                         0.162500       0.071947

                          2       5    5s           456100.000000       0.000000
                                                     68330.000000       0.000000
                                                     15550.000000       0.000000
                                                      4405.000000       0.000000
                                                      1439.000000       0.000000
                                                       520.400000       0.000000
                                                       203.100000       0.000000
                                                        83.960000       0.000000
                                                        36.200000       0.000000
                                                        15.830000       0.000000
                                                         6.334000       0.000000
                                                         2.694000       0.000000
                                                         0.976800       0.000000
                                                         0.431300       0.000000
                                                         0.162500       0.182411

                          3       1    1dx2              1.046000       1.780696
                                                         0.344000       0.000000
                          3       1    1dxy              1.046000       3.084257
                                                         0.344000       0.000000
                          3       1    1dxz              1.046000       3.084257
                                                         0.344000       0.000000
                          3       1    1dy2              1.046000       1.780696
                                                         0.344000       0.000000
                          3       1    1dyz              1.046000       3.084257
                                                         0.344000       0.000000
                          3       1    1dz2              1.046000       1.780696
                                                         0.344000       0.000000

                          3       2    2dx2              1.046000       0.000000
                                                         0.344000       0.254324
                          3       2    2dxy              1.046000       0.000000
                                                         0.344000       0.440501
                          3       2    2dxz              1.046000       0.000000
                                                         0.344000       0.440501
                          3       2    2dy2              1.046000       0.000000
                                                         0.344000       0.254324
                          3       2    2dyz              1.046000       0.000000
                                                         0.344000       0.440501
                          3       2    2dz2              1.046000       0.000000
                                                         0.344000       0.254324

                          4       1    1fx3              0.706000       0.672613
                          4       1    1fx2y             0.706000       1.504008
                          4       1    1fx2z             0.706000       1.504008
                          4       1    1fxy2             0.706000       1.504008
                          4       1    1fxyz             0.706000       2.605018
                          4       1    1fxz2             0.706000       1.504008
                          4       1    1fy3              0.706000       0.672613
                          4       1    1fy2z             0.706000       1.504008
                          4       1    1fyz2             0.706000       1.504008
                          4       1    1fz3              0.706000       0.672613

     RI Auxiliary Basis Set                                        cc-pVTZ-RIFIT

       Number of orbital shell sets:                                          32
       Number of orbital shells:                                              32
       Number of primitive Cartesian functions:                               32
       Number of Cartesian basis functions:                                  156
       Number of spherical basis functions:                                  122
       Norm type:                                                              2

       Normalised Cartesian orbitals:

                        Set   Shell   Orbital            Exponent    Coefficient

                          1       1    1s                0.227318       0.234631

                          2       1    1px               0.294546       0.309302
                          2       1    1py               0.294546       0.309302
                          2       1    1pz               0.294546       0.309302

                          3       1    1dx2              0.304138       0.205014
                          3       1    1dxy              0.304138       0.355095
                          3       1    1dxz              0.304138       0.355095
                          3       1    1dy2              0.304138       0.205014
                          3       1    1dyz              0.304138       0.355095
                          3       1    1dz2              0.304138       0.205014

                          4       1    1s                0.541567       0.449934

                          5       1    1px               0.566618       0.700734
                          5       1    1py               0.566618       0.700734
                          5       1    1pz               0.566618       0.700734

                          6       1    1fx3              0.596584       0.460485
                          6       1    1fx2y             0.596584       1.029675
                          6       1    1fx2z             0.596584       1.029675
                          6       1    1fxy2             0.596584       1.029675
                          6       1    1fxyz             0.596584       1.783450
                          6       1    1fxz2             0.596584       1.029675
                          6       1    1fy3              0.596584       0.460485
                          6       1    1fy2z             0.596584       1.029675
                          6       1    1fyz2             0.596584       1.029675
                          6       1    1fz3              0.596584       0.460485

                          7       1    1dx2              0.711214       0.906588
                          7       1    1dxy              0.711214       1.570256
                          7       1    1dxz              0.711214       1.570256
                          7       1    1dy2              0.711214       0.906588
                          7       1    1dyz              0.711214       1.570256
                          7       1    1dz2              0.711214       0.906588

                          8       1    1px               0.843351       1.151995
                          8       1    1py               0.843351       1.151995
                          8       1    1pz               0.843351       1.151995

                          9       1    1s                1.058000       0.743488

                         10       1    1gx4              1.094691       1.427207
                         10       1    1gx3y             1.094691       3.776035
                         10       1    1gx3z             1.094691       3.776035
                         10       1    1gx2y2            1.094691       4.874840
                         10       1    1gx2yz            1.094691       8.443471
                         10       1    1gx2z2            1.094691       4.874840
                         10       1    1gxy3             1.094691       3.776035
                         10       1    1gxy2z            1.094691       8.443471
                         10       1    1gxyz2            1.094691       8.443471
                         10       1    1gxz3             1.094691       3.776035
                         10       1    1gy4              1.094691       1.427207
                         10       1    1gy3z             1.094691       3.776035
                         10       1    1gy2z2            1.094691       4.874840
                         10       1    1gyz3             1.094691       3.776035
                         10       1    1gz4              1.094691       1.427207

                         11       1    1fx3              1.281523       2.572402
                         11       1    1fx2y             1.281523       5.752065
                         11       1    1fx2z             1.281523       5.752065
                         11       1    1fxy2             1.281523       5.752065
                         11       1    1fxyz             1.281523       9.962868
                         11       1    1fxz2             1.281523       5.752065
                         11       1    1fy3              1.281523       2.572402
                         11       1    1fy2z             1.281523       5.752065
                         11       1    1fyz2             1.281523       5.752065
                         11       1    1fz3              1.281523       2.572402

                         12       1    1px               1.363314       2.099834
                         12       1    1py               1.363314       2.099834
                         12       1    1pz               1.363314       2.099834

                         13       1    1dx2              1.457029       3.180378
                         13       1    1dxy              1.457029       5.508576
                         13       1    1dxz              1.457029       5.508576
                         13       1    1dy2              1.457029       3.180378
                         13       1    1dyz              1.457029       5.508576
                         13       1    1dz2              1.457029       3.180378

                         14       1    1s                1.723282       1.071957

                         15       1    1fx3              2.006849       7.056873
                         15       1    1fx2y             2.006849      15.779648
                         15       1    1fx2z             2.006849      15.779648
                         15       1    1fxy2             2.006849      15.779648
                         15       1    1fxyz             2.006849      27.331152
                         15       1    1fxz2             2.006849      15.779648
                         15       1    1fy3              2.006849       7.056873
                         15       1    1fy2z             2.006849      15.779648
                         15       1    1fyz2             2.006849      15.779648
                         15       1    1fz3              2.006849       7.056873

                         16       1    1dx2              3.048551      11.576385
                         16       1    1dxy              3.048551      20.050886
                         16       1    1dxz              3.048551      20.050886
                         16       1    1dy2              3.048551      11.576385
                         16       1    1dyz              3.048551      20.050886
                         16       1    1dz2              3.048551      11.576385

                         17       1    1px               3.621089       7.120149
                         17       1    1py               3.621089       7.120149
                         17       1    1pz               3.621089       7.120149

                         18       1    1gx4              3.695301      40.501616
                         18       1    1gx3y             3.695301     107.157205
                         18       1    1gx3z             3.695301     107.157205
                         18       1    1gx2y2            3.695301     138.339356
                         18       1    1gx2yz            3.695301     239.610794
                         18       1    1gx2z2            3.695301     138.339356
                         18       1    1gxy3             3.695301     107.157205
                         18       1    1gxy2z            3.695301     239.610794
[...]
 qs_energies_properties               1  3.0    0.000    0.000  252.857  252.857
 tddfpt                               1  4.0    0.000    0.001  252.857  252.857
 tddfpt_energies                      1  5.0    0.000    0.001  252.812  252.812
 fft3d_ps                          9577 12.4  104.501  131.199  241.517  251.687
 tddfpt_davidson_solver               1  6.0    0.001    0.002  251.567  251.567
 tddfpt_compute_Aop_evects            8  7.0    0.000    0.000  249.866  249.866
 fhxc_kernel                          8  8.0    0.008    0.009  231.304  231.304
 ps_wavelet_solve                   614  9.5  137.799  156.207  177.089  179.591
 qs_rho_update_rho_low              616  6.0    0.006    0.007  150.724  150.731
 calculate_rho_elec                 616  7.0    2.995    3.553  150.102  150.108
 mp_alltoall_d54                    614 10.5   22.546  135.854   22.546  135.854
 mp_alltoall_z22v                  9577 14.4  116.025  125.205  116.025  125.205
 xc_pw_derive                      2781 11.0    0.032    0.040  123.880  124.728
 density_rs2pw                      616  8.0    0.037    0.044  101.287  104.815
 qs_vxc_create                      454  8.0    0.005    0.006   99.602   99.604
 tddfpt_apply_coulomb               160  9.0    0.003    0.005   97.203   97.567
 x_to_yz                           4323 13.7   12.938   15.207   71.572   74.088
 yz_to_x                           4326 13.2    6.983    8.376   64.303   70.293
 xc_rho_set_and_dset_create         455 10.0    1.085    1.372   63.730   69.654
 transfer_rs2pw                    3080  9.3    0.080    0.119   60.946   63.076
 prepare_gapw_den                   615  8.3    0.010    0.012   60.128   60.799
 xc_pw_divergence                   312 10.5    0.014    0.017   57.634   58.626
 tddfpt_apply_xc_analytic           160  9.0    0.227    0.299   53.409   54.179
 xc_vxc_pw_create                   152  9.0    0.993    1.201   52.252   52.254
 put_rho0_on_grid                   615  9.3    3.034    3.651   50.792   51.465
 mp_alltoall_d11v                 19472 11.9   34.626   50.260   34.626   50.260
 integrate_four_center              774  9.4   16.336   34.197   47.905   48.336
 grid_collocate_task_list           616  8.0   43.468   47.531   43.468   47.531
 integrate_v_rspace                 312  9.0    0.007    0.009   47.099   47.374
 xc_exc_calc                        302  9.0    1.465    1.739   47.345   47.346
 transfer_pw2rs                    1863 10.5    0.029    0.034   45.570   46.395
 potential_pw2rs                    312 10.0    0.107    0.116   43.064   43.347
 mp_waitany                       92610 11.8   38.458   41.725   38.458   41.725
 mp_sync                           4380 11.4   22.687   38.981   22.687   38.981
 transfer_rs2pw_250                1232 10.6   15.753   16.755   36.321   38.283
 hfx_ks_matrix                      454  8.0    0.016    0.018   32.014   32.430
 xc_calc_2nd_deriv_analytical       800 10.1    1.909    2.044   31.772   31.857
 transfer_pw2rs_250                 927 11.0   11.286   12.186   30.677   31.419
 integrate_vhg0_rspace              614  8.5    0.337    0.392   29.148   29.364
 mp_alltoall_d45                    615 10.5   15.297   26.869   15.297   26.869
 mp_sum_d                         12945 10.2   20.288   23.524   20.288   23.524
 sum_up_and_integrate               152  8.0    0.002    0.002   22.397   22.447
 tddfpt_apply_hfx                     8  8.0    0.003    0.004   17.879   17.879
 pw_scatter_p                      4635 12.7   16.776   17.276   16.776   17.276
 tddft_hfx_matrix                   320  9.0    0.008    0.009   15.922   16.011
 cp2k_distribution_to_z_slices      614  9.5    5.876    6.363   14.046   15.025
 pw_gather_p                       4942 12.0   13.309   14.821   13.309   14.821
 pw_derive                         4623 11.4   13.615   14.662   13.615   14.662
 transfer_rs2pw_30                  616 10.0    5.792    5.985   13.581   13.800
 mp_waitall_1                    870718 13.4    9.109   12.630    9.109   12.630
 qs_scf_new_mos                     454  5.0    0.002    0.003   12.148   12.167
 qs_scf_loop_do_ot                  454  6.0    0.002    0.003   12.146   12.165
 init_scf_loop                        1  4.0    0.000    0.000   11.435   11.435
 ot_scf_mini                        454  7.0    0.006    0.006   11.362   11.382
 gaVxcgb_GC                         624  9.5    0.132   11.279    0.132   11.279
 dbcsr_multiply_generic            6790  9.8    0.275    0.297   10.838   10.919
 fft_wrap_pw1pw2_90                 928 10.7    0.324    0.517    8.160   10.360
 pw_copy                           7385 10.7    9.525   10.185    9.525   10.185
 mp_sendrecv_dv                  117040 11.0    9.532    9.844    9.532    9.844
 pw_poisson_set                     615  9.5    0.021    0.028    9.467    9.558
 integrate_four_center_main         774 10.4    0.139    1.976    0.412    9.549
 rs_grid_zero                      2469 11.1    9.076    9.519    9.076    9.519
 transfer_pw2rs_30                  312 12.0    5.301    6.181    8.814    9.272
 calculate_rho_atom                1845  9.3    3.916    9.019    3.916    9.019
 calculate_vxc_atom                 454  8.0    0.239    2.849    8.821    8.823
 transfer_rs2pw_90                  616 10.0    2.054    2.260    8.157    8.615
 calculate_xc_2nd_deriv_atom        160  9.0    0.055    1.911    0.148    8.067
 integrate_four_center_bin        64966 11.4    0.272    7.573    0.272    7.573
 xc_functional_eval                2911 10.9    0.004    0.011    2.184    7.389
 pbe_lda_eval                      2911 11.9    2.180    7.379    2.180    7.379
 pw_copy_to_array                  4942 12.0    5.049    6.109    5.049    6.109
 pw_integral_ab_c1d_c1d_gs          614  9.5    4.488    4.532    5.228    6.020
 multiply_cannon                   6790 10.8    0.610    0.627    5.511    5.744
 mp_sum_dv                        32039 11.1    5.499    5.609    5.499    5.609
 qs_ot_get_p                        455  8.0    0.003    0.003    5.552    5.563
 transfer_pw2rs_90                  312 12.0    1.125    1.289    4.502    5.099
 pw_axpy                           4798  9.6    4.433    4.783    4.433    4.783
 cp_dbcsr_sm_fm_multiply           1009  8.6    0.019    0.022    4.306    4.405
 qs_ot_p2m_diag                     453  9.0    0.009    0.018    4.235    4.251
 pw_copy_from_array                4635 12.7    3.311    4.245    3.311    4.245
 multiply_cannon_loop              6790 11.8    1.016    1.069    4.011    4.222
 rs_gather_matrices                 312 10.0    0.003    0.015    3.764    4.051
 mp_isend_dv                     374284 13.4    2.326    3.945    2.326    3.945
 grid_integrate_task_list           312 10.0    0.262    3.926    0.262    3.926
 mp_sum_dm                         7420  8.5    3.278    3.767    3.278    3.767
 mp_isendrecv_dv                 206340 11.9    1.921    3.627    1.921    3.627
 ot_mini                            454  8.0    0.002    0.002    3.575    3.601
 pw_zero                           4508 10.4    3.246    3.497    3.246    3.497
 dbcsr_complete_redistribute       4106 10.9    0.143    0.199    3.321    3.417
 make_m2s                         13580 10.8    0.228    0.250    3.135    3.293
 qs_ot_get_derivative               152  9.0    0.001    0.001    3.286    3.289
 mp_isend_dm3                     18522 11.8    1.581    2.983    1.581    2.983
 transfer_rs2pw_10                  616 10.0    1.064    1.192    2.807    2.917
 calc_screening_functions             1 10.0    1.521    1.572    2.809    2.869
 cp_dbcsr_syevd                     453 10.0    0.024    0.026    2.701    2.705
 Vh_1c_gg_integrals                 614  8.5    0.075    1.499    2.320    2.633
 mp_irecv_dm3                     18522 11.8    1.493    2.551    1.493    2.551
 copy_dbcsr_to_fm                  1513  9.9    0.019    0.021    2.513    2.538
 powell_optimize                 985853 11.0    2.437    2.519    2.437    2.519
 qs_ot_get_derivative_diag          150 10.0    0.003    0.004    2.515    2.519
 mp_max_i                          1102  6.6    1.698    2.363    1.698    2.363
 make_images                      13580 11.8    0.531    0.549    2.267    2.340
 integrate_four_center_getP         774 10.4    0.121    0.132    2.198    2.229
 integrate_four_center_dist_KS      774 10.4    0.124    0.134    2.212    2.219
 copy_fm_to_dbcsr                  2591  9.9    0.011    0.012    1.941    2.041
 cp_fm_syevd                        503 10.7    0.003    0.003    1.964    1.970
 fft_wrap_pw1pw2_30                 928 10.7    0.059    0.070    1.717    1.961
 create_qs_kind_set                   1  2.0    0.000    0.000    1.789    1.790
 read_qs_kind                         3  3.0    0.992    1.018    1.789    1.790
 transfer_pw2rs_10                  312 12.0    0.571    0.628    1.548    1.782
 scale_and_distribute              1228 10.5    1.532    1.718    1.532    1.718
 calc_pair_dist_radii                 1 10.0    0.528    0.537    1.677    1.713
 offload_free_buffer                622  9.4    1.400    1.601    1.400    1.601
 qs_ot_get_orbitals                 454  8.0    0.002    0.002    1.517    1.531
 cp_fm_redistribute_end             503 11.7    0.897    1.506    0.909    1.522
 cp_dbcsr_sm_fm_multiply_core      1009  9.6    0.002    0.003    1.423    1.463
 mp_alltoall_i11v                 14288 11.9    1.448    1.451    1.448    1.451
 cp_fm_syevd_base                   503 11.7    0.606    1.221    0.606    1.221
 mp_sum_l                         31143 10.7    1.112    1.220    1.112    1.220
 tddfpt_orthonormalize_psi1_psi       9  6.9    0.019    0.021    1.023    1.023
 dbcsr_desymmetrize_deep           1514 10.9    0.028    0.032    0.964    0.988
 make_images_sizes                13580 12.8    0.014    0.016    0.906    0.958
 mp_alltoall_i44                  13580 13.8    0.892    0.943    0.892    0.943
 multiply_cannon_metrocomm4      149380 12.8    0.442    0.460    0.854    0.920
 multiply_cannon_metrocomm2      142590 12.8    0.422    0.446    0.776    0.850
 multiply_cannon_metrocomm3      162960 12.8    0.256    0.263    0.681    0.844
 parser_read_line                210329  4.0    0.073    0.079    0.798    0.807
 update_ks_atom                     614  8.3    0.043    0.121    0.530    0.796
 calculate_dm_sparse                455  7.0    0.001    0.002    0.784    0.793
 pw_poisson_rebuild                 614  9.5    0.001    0.001    0.763    0.776
 ps_wavelet_create                    1 10.0    0.000    0.000    0.762    0.776
 RS_z_slice_distribution              1 11.0    0.676    0.713    0.762    0.776
 mp_bcast_dm                       5369  9.5    0.497    0.763    0.497    0.763
 cp_dbcsr_plus_fm_fm_t              161  9.0    0.002    0.003    0.727    0.733
 parser_read_line_low               228  5.0    0.072    0.339    0.725    0.732
 fft_wrap_pw1pw2_10                 928 10.7    0.015    0.016    0.673    0.713
 tddfpt_apply_energy_diff             8  8.0    0.001    0.001    0.684    0.684
 dbcsr_make_images_dense          10340 11.9    0.161    0.176    0.468    0.669
 prepare_dr1dr                      800 11.1    0.570    0.664    0.570    0.664
 broadcast_input_information        228  6.0    0.170    0.182    0.653    0.664
 calculate_rho_atom_coeff           616  7.0    0.056    0.182    0.615    0.623
 hybrid_alltoall_any              15094 13.6    0.117    0.140    0.572    0.620
 mp_rank_compare                   9577 13.4    0.575    0.611    0.575    0.611
 tddfpt_compute_residual_vects        7  7.0    0.001    0.001    0.604    0.605
 mp_alltoall_i22                   5772 11.9    0.465    0.591    0.465    0.591
 multiply_cannon_metrocomm1      162960 12.8    0.179    0.182    0.451    0.574
 tddfpt_print_nto_analysis            1  6.0    0.002    0.003    0.571    0.571
 arnoldi_extremal                   455  9.0    0.008    0.009    0.546    0.556
 arnoldi_normal_ev                  456 10.0    0.008    0.009    0.540    0.549
 dbcsr_create_new                139642 12.4    0.383    0.401    0.520    0.541
 mp_allgather_i34                  6790 11.8    0.483    0.536    0.483    0.536
 dbcsr_make_dense_low             30243 12.8    0.150    0.155    0.228    0.491
 vxc_of_r_new                      1816  9.0    0.001    0.039    0.010    0.478
 dbcsr_finalize                   15170 11.3    0.071    0.102    0.336    0.472
 cp_fm_redistribute_start           503 11.7    0.353    0.368    0.445    0.451
 make_images_data                 13580 12.8    0.130    0.173    0.287    0.433
 mp_alltoall_z11v                   928 13.7    0.392    0.433    0.392    0.433
 pw_scale                           928  9.5    0.354    0.430    0.354    0.430
 build_subspace                     456 11.0    0.018    0.020    0.391    0.395
 mp_irecv_dv                     370980 13.4    0.281    0.377    0.281    0.377
 parallel_gemm_fm                  1347  8.4    0.002    0.002    0.341    0.355
 multiply_cannon_multrec         162960 12.8    0.205    0.325    0.233    0.355
 parallel_gemm_fm_gemm             1347  9.4    0.002    0.002    0.339    0.353
 cp_fm_gemm                        1347 10.4    0.337    0.351    0.337    0.351
 tddfpt_construct_ground_state_       1  6.0    0.000    0.000    0.341    0.342
 dbcsr_special_finalize           33950 12.8    0.081    0.084    0.264    0.331
 init_scf_run                         1  3.0    0.000    0.000    0.328    0.328
 scf_env_initial_rho_setup            1  4.0    0.000    0.000    0.328    0.328
 mp_bcast_i_src                     912  7.0    0.271    0.306    0.271    0.306
 calculate_rho0_atom               1845  9.3    0.287    0.304    0.287    0.304
 mp_cart_sub                       3029 11.9    0.301    0.303    0.301    0.303
 dbcsr_matrix_vector_mult          3993 12.0    0.036    0.040    0.194    0.303
 qs_init_subsys                       1  2.0    0.006    0.009    0.295    0.295
 cp_fm_geeig                         20  7.0    0.001    0.001    0.292    0.292
 cp_fm_trace_a1b1t1_aa            13090  8.0    0.060    0.065    0.280    0.282
 xc_2nd_deriv_of_r                  640 10.0    0.001    0.048    0.006    0.281
 qs_env_setup                         1  3.0    0.000    0.000    0.275    0.279
 qs_env_rebuild_pw_env                2  3.5    0.000    0.000    0.274    0.278
 pw_env_rebuild                       1  5.0    0.001    0.001    0.273    0.277
 xz_to_yz                           616 12.0    0.022    0.025    0.257    0.272
 ot_new_cg_direction                152  9.0    0.001    0.002    0.270    0.271
 dbcsr_merge_all                  13463 12.2    0.152    0.203    0.187    0.268
 mp_isend_iv                     320140 13.8    0.242    0.263    0.242    0.263
 dbcsr_iterator_start            112123 12.5    0.110    0.218    0.136    0.262
 mp_bcast_am_src                    228  7.0    0.195    0.218    0.207    0.254
 make_dense_data                  30243 13.8    0.012    0.110    0.015    0.252
 mp_cart_create                    3360 10.4    0.224    0.240    0.228    0.246
 apply_preconditioner_dbcsr         153 10.0    0.000    0.000    0.238    0.244
 apply_single                       153 11.0    0.000    0.000    0.238    0.244
 pw_grid_setup                        4  6.0    0.000    0.000    0.230    0.235
 pw_grid_setup_internal               4  7.0    0.006    0.008    0.230    0.235
 dbcsr_destroy                   135414 11.5    0.164    0.170    0.220    0.232
 rs_scatter_matrices                616  8.0    0.005    0.011    0.215    0.220
 create_kernel_env                    1  6.0    0.000    0.000    0.201    0.219
 xc_prep_2nd_deriv                    1  7.0    0.000    0.000    0.201    0.219
 dbcsr_data_new                  371459 13.0    0.153    0.216    0.153    0.216
 rs_grid_create                     620  9.5    0.003    0.004    0.055    0.214
 offload_create_buffer              622 10.5    0.052    0.211    0.052    0.211
 qs_energies_init_hamiltonians        1  3.0    0.000    0.000    0.208    0.208
 yz_to_xz                           312 14.0    0.018    0.019    0.175    0.202
 build_core_hamiltonian_matrix        1  4.0    0.000    0.000    0.201    0.202
 overlap_condnum                      1  5.0    0.000    0.000    0.199    0.200
 dbcsr_data_release              633366 13.2    0.160    0.195    0.160    0.195
 dbcsr_new_transposed              3195 10.8    0.018    0.020    0.172    0.178
 dbcsr_make_dense                  4393 11.1    0.018    0.019    0.094    0.175
 mp_sum_b                         10341 10.9    0.169    0.173    0.169    0.173
 dbcsr_iterator_stop             112123 12.5    0.081    0.143    0.100    0.170
 arnoldi_conjugate_gradient           5  6.0    0.004    0.005    0.168    0.168
 setup_buffer_matrices            13580 11.8    0.050    0.051    0.155    0.160
 dbcsr_add_d                       2266  9.0    0.004    0.004    0.020    0.158
 pw_grid_sort                         4  8.0    0.106    0.108    0.155    0.158
 mp_irecv_iv                     320139 13.8    0.140    0.156    0.140    0.156
 dbcsr_col_vec_to_rep_row          4804 12.3    0.034    0.037    0.082    0.155
 dbcsr_add_anytype                 2266 10.0    0.004    0.024    0.016    0.155
 dbcsr_work_create                49079 12.5    0.086    0.094    0.121    0.151
 dbcsr_sym_matrix_vector_mult       811  7.8    0.013    0.014    0.098    0.131
 integrate_four_center_load         774 10.4    0.002    0.002    0.092    0.128
 dbcsr_make_undense                4393 11.1    0.029    0.057    0.056    0.127
 hfx_load_balance                     1 11.0    0.000    0.000    0.090    0.126
 dbcsr_work_destroy_all           49079 13.4    0.079    0.089    0.104    0.124
 Gram_Schmidt_ortho                3645 11.9    0.004    0.007    0.099    0.122
 dbcsr_redistribute                 152 12.0    0.004    0.005    0.119    0.121
 hfx_load_balance_range               1 12.0    0.000    0.000    0.083    0.119
 xc_pw_smooth                       152 10.0    0.000    0.001    0.080    0.112
 quick_finalize                   23631 14.0    0.049    0.063    0.083    0.109
 dbcsr_merge_single_wm            11985 13.3    0.057    0.071    0.067    0.108
 dbcsr_mm_multrec_init             6790 11.8    0.013    0.016    0.093    0.103
 arnoldi_init                       456 11.0    0.005    0.006    0.090    0.099
 tddfpt_compute_ritz_vects            8  7.0    0.006    0.006    0.098    0.099
 dbcsr_copy                       11758  9.7    0.039    0.043    0.085    0.095
 write_mo_set_to_restart            454  5.0    0.007    0.029    0.088    0.094
 copy_fm_to_dbcsr_bc               2591 10.9    0.027    0.031    0.079    0.091
 dbcsr_mm_csr_init                 6790 12.8    0.064    0.072    0.080    0.090
 mp_bcast_dv                       5307 13.2    0.026    0.089    0.026    0.089
 dbcsr_dot                         1517  8.7    0.009    0.017    0.079    0.088
 dbcsr_make_index_list            33950 11.8    0.077    0.084    0.077    0.084
 dbcsr_switch_data_area           66104 13.9    0.061    0.062    0.082    0.084
 -------------------------------------------------------------------------------

 The number of warnings for this run is : 2
 
 -------------------------------------------------------------------------------
  **** **** ******  **  PROGRAM ENDED AT                 2025-04-28 08:39:20.835
 ***** ** ***  *** **   PROGRAM RAN ON                              i03r06c06s12
 **    ****   ******    PROGRAM RAN BY                                   di38fab
 ***** **    ** ** **   PROGRAM PROCESS ID                               2230474
  **** **  *******  **  PROGRAM STOPPED IN /hppfs/scratch/04/di38fab/07_MOL_non_
                                           aug/05_MOL_non_aug/05_MOL/W4-11+ALK/n
                                           h2cl/cc-pVTZ/TDDFT
