 DBCSR| CPU Multiplication driver                                           BLAS (U)
 DBCSR| Multrec recursion limit                                              512 (U)
 DBCSR| Multiplication stack size                                           1000 (D)
 DBCSR| Maximum elements for images                                    UNLIMITED (U)
 DBCSR| Multiplicative factor virtual images                                   1 (U)
 DBCSR| Use multiplication densification                                       T (D)
 DBCSR| Multiplication size stacks                                             3 (U)
 DBCSR| Use memory pool for CPU allocation                                     F (U)
 DBCSR| Number of 3D layers                                               SINGLE (U)
 DBCSR| Use MPI memory allocation                                              F (U)
 DBCSR| Use RMA algorithm                                                      F (U)
 DBCSR| Use Communication thread                                               T (U)
 DBCSR| Communication thread load                                             75 (D)
 DBCSR| MPI: My process id                                                     0
 DBCSR| MPI: Number of processes                                             216
 DBCSR| OMP: Current number of threads                                         4
 DBCSR| OMP: Max number of threads                                             4
 DBCSR| Split modifier for TAS multiplication algorithm                  1.0E+00 (U)


  **** **** ******  **  PROGRAM STARTED AT               2025-03-31 01:05:11.240
 ***** ** ***  *** **   PROGRAM STARTED ON                          i01r08c04s01
 **    ****   ******    PROGRAM STARTED BY                               di38fab
 ***** **    ** ** **   PROGRAM PROCESS ID                                977905
  **** **  *******  **  PROGRAM STARTED IN /hppfs/scratch/04/di38fab/07_MOL_non_
                                           aug/05_MOL_non_aug/05_MOL/aUKBqsEOTmq
                                           69kFe5R_nOg/5k_set_final_qzvp/BOBHUV/
                                           cc-pVTZ/GW+BSE

 CP2K| version string:                 CP2K version 2025.1 (Development Version)
 CP2K| source code revision number:                                  git:d2e611a
 CP2K| cp2kflags: omp libint fftw3 libxc parallel scalapack max_contr=4         
 CP2K| is freely available from                            https://www.cp2k.org/
 CP2K| Program compiled at                       Thu 06 Mar 2025 05:09:20 PM CET
 CP2K| Program compiled on                                               login02
 CP2K| Program compiled for                                        Supermuc-foss
 CP2K| Data directory path                  /hppfs/work/pn36zo/di38fab/cp2k/data
 CP2K| Input file name                                                    GW.inp

 GLOBAL| Force Environment number                                              1
 GLOBAL| Basis set file name            /hppfs/scratch/04/di38fab/04_TMD/BASIS_A
 GLOBAL| Potential file name            /hppfs/work/pn36zo/di38fab/cp2k/data/ALL
 GLOBAL| MM Potential file name                                     MM_POTENTIAL
 GLOBAL| Coordinate file name                                      __STD_INPUT__
 GLOBAL| Method name                                                        CP2K
 GLOBAL| Project name                                                       MoS2
 GLOBAL| Run type                                                         ENERGY
 GLOBAL| FFT library                                                       FFTW3
 GLOBAL| Diagonalization library                                       ScaLAPACK
 GLOBAL| DGEMM library                                                      BLAS
 GLOBAL| Orthonormality check for eigenvectors                          DISABLED
 GLOBAL| Matrix multiplication library                                 ScaLAPACK
 GLOBAL| All-to-all communication in single precision                          F
 GLOBAL| FFTs using library dependent lengths                                  F
 GLOBAL| Grid backend                                                       AUTO
 GLOBAL| Global print level                                               MEDIUM
 GLOBAL| MPI I/O enabled                                                       T
 GLOBAL| Total number of message passing processes                           216
 GLOBAL| Number of threads for this process                                    4
 GLOBAL| This output is from process                                           0
 GLOBAL| OpenMP stack size per thread (OMP_STACKSIZE)                    default
 GLOBAL| CPU model name             Intel(R) Xeon(R) Platinum 8174 CPU @ 3.10GHz

 MEMORY| system memory details [Kb]
 MEMORY|                        rank 0           min           max       average
 MEMORY| MemTotal             98436664      98436648      98436708      98436668
 MEMORY| MemFree              83861252      83450080      85402140      83873666
 MEMORY| Buffers                     0             0             0             0
 MEMORY| Cached                2637328       2356704       2637328       2580721
 MEMORY| Slab                  1245624        989652       1260592       1223906
 MEMORY| SReclaimable           276524        228584        281440        272391
 MEMORY| MemLikelyFree        86775104      86323952      87987428      86726778


 *** Fundamental physical constants (SI units) ***

 *** Literature: B. J. Mohr and B. N. Taylor,
 ***             CODATA recommended values of the fundamental physical
 ***             constants: 2006, Web Version 5.1
 ***             http://physics.nist.gov/constants

 Speed of light in vacuum [m/s]                             2.99792458000000E+08
 Magnetic constant or permeability of vacuum [N/A**2]       1.25663706143592E-06
 Electric constant or permittivity of vacuum [F/m]          8.85418781762039E-12
 Planck constant (h) [J*s]                                  6.62606896000000E-34
 Planck constant (h-bar) [J*s]                              1.05457162825177E-34
 Elementary charge [C]                                      1.60217648700000E-19
 Electron mass [kg]                                         9.10938215000000E-31
 Electron g factor [ ]                                     -2.00231930436220E+00
 Proton mass [kg]                                           1.67262163700000E-27
 Fine-structure constant                                    7.29735253760000E-03
 Rydberg constant [1/m]                                     1.09737315685270E+07
 Avogadro constant [1/mol]                                  6.02214179000000E+23
 Boltzmann constant [J/K]                                   1.38065040000000E-23
 Atomic mass unit [kg]                                      1.66053878200000E-27
 Bohr radius [m]                                            5.29177208590000E-11

 *** Conversion factors ***

 [u] -> [a.u.]                                              1.82288848426455E+03
 [Angstrom] -> [Bohr] = [a.u.]                              1.88972613288564E+00
 [a.u.] = [Bohr] -> [Angstrom]                              5.29177208590000E-01
 [a.u.] -> [s]                                              2.41888432650478E-17
 [a.u.] -> [fs]                                             2.41888432650478E-02
 [a.u.] -> [J]                                              4.35974393937059E-18
 [a.u.] -> [N]                                              8.23872205491840E-08
 [a.u.] -> [K]                                              3.15774647902944E+05
 [a.u.] -> [kJ/mol]                                         2.62549961709828E+03
 [a.u.] -> [kcal/mol]                                       6.27509468713739E+02
 [a.u.] -> [Pa]                                             2.94210107994716E+13
 [a.u.] -> [bar]                                            2.94210107994716E+08
 [a.u.] -> [atm]                                            2.90362800883016E+08
 [a.u.] -> [eV]                                             2.72113838565563E+01
 [a.u.] -> [Hz]                                             6.57968392072181E+15
 [a.u.] -> [1/cm] (wave numbers)                            2.19474631370540E+05
 [a.u./Bohr**2] -> [1/cm]                                   5.14048714338585E+03
 

 CELL_TOP| Volume [angstrom^3]:                                     27000.000000
 CELL_TOP| Vector a [angstrom    30.000     0.000     0.000   |a| =    30.000000
 CELL_TOP| Vector b [angstrom     0.000    30.000     0.000   |b| =    30.000000
 CELL_TOP| Vector c [angstrom     0.000     0.000    30.000   |c| =    30.000000
 CELL_TOP| Angle (b,c), alpha [degree]:                                90.000000
 CELL_TOP| Angle (a,c), beta  [degree]:                                90.000000
 CELL_TOP| Angle (a,b), gamma [degree]:                                90.000000
 CELL_TOP| Numerically orthorhombic:                                         YES
 CELL_TOP| Periodicity                                                      NONE

 GENERATE|  Preliminary Number of Bonds generated:                             0
 GENERATE|  Achieved consistency in connectivity generation.

 CELL| Volume [angstrom^3]:                                         27000.000000
 CELL| Vector a [angstrom]:      30.000     0.000     0.000   |a| =    30.000000
 CELL| Vector b [angstrom]:       0.000    30.000     0.000   |b| =    30.000000
 CELL| Vector c [angstrom]:       0.000     0.000    30.000   |c| =    30.000000
 CELL| Angle (b,c), alpha [degree]:                                    90.000000
 CELL| Angle (a,c), beta  [degree]:                                    90.000000
 CELL| Angle (a,b), gamma [degree]:                                    90.000000
 CELL| Numerically orthorhombic:                                             YES
 CELL| Periodicity                                                          NONE

 CELL_REF| Volume [angstrom^3]:                                     27000.000000
 CELL_REF| Vector a [angstrom    30.000     0.000     0.000   |a| =    30.000000
 CELL_REF| Vector b [angstrom     0.000    30.000     0.000   |b| =    30.000000
 CELL_REF| Vector c [angstrom     0.000     0.000    30.000   |c| =    30.000000
 CELL_REF| Angle (b,c), alpha [degree]:                                90.000000
 CELL_REF| Angle (a,c), beta  [degree]:                                90.000000
 CELL_REF| Angle (a,b), gamma [degree]:                                90.000000
 CELL_REF| Numerically orthorhombic:                                         YES
 CELL_REF| Periodicity                                                      NONE

 *******************************************************************************
 *******************************************************************************
 **                                                                           **
 **     #####                         ##              ##                      **
 **    ##   ##            ##          ##              ##                      **
 **   ##     ##                       ##            ######                    **
 **   ##     ##  ##   ##  ##   #####  ##  ##   ####   ##    #####    #####    **
 **   ##     ##  ##   ##  ##  ##      ## ##   ##      ##   ##   ##  ##   ##   **
 **   ##  ## ##  ##   ##  ##  ##      ####     ###    ##   ######   ######    **
 **    ##  ###   ##   ##  ##  ##      ## ##      ##   ##   ##       ##        **
 **     #######   #####   ##   #####  ##  ##  ####    ##    #####   ##        **
 **           ##                                                    ##        **
 **                                                                           **
 **                                                ... make the atoms dance   **
 **                                                                           **
 **            Copyright (C) by CP2K developers group (2000-2025)             **
 **                      J. Chem. Phys. 152, 194103 (2020)                    **
 **                                                                           **
 *******************************************************************************

 DFT| Spin restricted Kohn-Sham (RKS) calculation                            RKS
 DFT| Multiplicity                                                             1
 DFT| Number of spin states                                                    1
 DFT| Charge                                                                   0
 DFT| Self-interaction correction (SIC)                                       NO
 DFT| Cutoffs: density                                              1.000000E-10
 DFT|          gradient                                             1.000000E-10
 DFT|          tau                                                  1.000000E-10
 DFT|          cutoff_smoothing_range                               0.000000E+00
 DFT| XC density smoothing                                                  NONE
 DFT| XC derivatives                                                          PW

 FUNCTIONAL| PBE:
 FUNCTIONAL| J.P.Perdew, K.Burke, M.Ernzerhof, Phys. Rev. Letter, vol. 77, n 18,
 FUNCTIONAL|  pp. 3865-3868, (1996)sx=0.750sc=1.000{spin unpolarized}           


 QS| Method:                                                                GAPW
 QS| Density plane wave grid type                        NON-SPHERICAL FULLSPACE
 QS| Number of grid levels:                                                    4
 QS| Density cutoff [a.u.]:                                                250.0
 QS| Multi grid cutoff [a.u.]: 1) grid level                               250.0
 QS|                           2) grid level                                83.3
 QS|                           3) grid level                                27.8
 QS|                           4) grid level                                 9.3
 QS| Grid level progression factor:                                          3.0
 QS| Relative density cutoff [a.u.]:                                        50.0
 QS| Interaction thresholds: eps_pgf_orb:                                1.0E-12
 QS|                         eps_filter_matrix:                          0.0E+00
 QS|                         eps_core_charge:                            1.0E-14
 QS|                         eps_rho_gspace:                             1.0E-12
 QS|                         eps_rho_rspace:                             1.0E-12
 QS|                         eps_gvg_rspace:                             1.0E-06
 QS|                         eps_ppl:                                    1.0E-02
 QS|                         eps_ppnl:                                   1.0E-08
 QS| GAPW|      One center basis from orbital basis primitives
 QS| GAPW|                   eps_fit:                                    1.0E-04
 QS| GAPW|                   eps_iso:                                    1.0E-12
 QS| GAPW|                   eps_svd:                                    1.0E-08
 QS| GAPW|                   eps_cpc:                                    1.0E-12
 QS| GAPW|   atom-r-grid: quadrature:                                     GC_LOG
 QS| GAPW|      atom-s-grid:  max l :                                          6
 QS| GAPW|      max_l_rho0 :                                                   2


 ATOMIC KIND INFORMATION

  1. Atomic kind: H                                     Number of atoms:       8

     Orbital Basis Set                                                   cc-pVTZ

       Number of orbital shell sets:                                           3
       Number of orbital shells:                                               6
       Number of primitive Cartesian functions:                                8
       Number of Cartesian basis functions:                                   15
       Number of spherical basis functions:                                   14
       Norm type:                                                              2

       Normalised Cartesian orbitals:

                        Set   Shell   Orbital            Exponent    Coefficient

                          1       1    1s               33.870000       0.000000
                                                         5.095000       0.000000
                                                         1.159000       0.000000
                                                         0.325800       0.307343
                                                         0.102700       0.000000

                          1       2    2s               33.870000       0.060718
                                                         5.095000       0.109507
                                                         1.159000       0.161468
                                                         0.325800       0.154871
                                                         0.102700       0.049575

                          1       3    3s               33.870000       0.000000
                                                         5.095000       0.000000
                                                         1.159000       0.000000
                                                         0.325800       0.000000
                                                         0.102700       0.129297

                          2       1    1px               1.407000       2.184277
                                                         0.388000       0.000000
                          2       1    1py               1.407000       2.184277
                                                         0.388000       0.000000
                          2       1    1pz               1.407000       2.184277
                                                         0.388000       0.000000

                          2       2    2px               1.407000       0.000000
                                                         0.388000       0.436495
                          2       2    2py               1.407000       0.000000
                                                         0.388000       0.436495
                          2       2    2pz               1.407000       0.000000
                                                         0.388000       0.436495

                          3       1    1dx2              1.057000       1.813597
                          3       1    1dxy              1.057000       3.141241
                          3       1    1dxz              1.057000       3.141241
                          3       1    1dy2              1.057000       1.813597
                          3       1    1dyz              1.057000       3.141241
                          3       1    1dz2              1.057000       1.813597

     RI Auxiliary Basis Set                                        cc-pVTZ-RIFIT

       Number of orbital shell sets:                                          10
       Number of orbital shells:                                              10
       Number of primitive Cartesian functions:                               10
       Number of Cartesian basis functions:                                   35
       Number of spherical basis functions:                                   30
       Norm type:                                                              2

       Normalised Cartesian orbitals:

                        Set   Shell   Orbital            Exponent    Coefficient

                          1       1    1s                0.289740       0.281460

                          2       1    1s                0.526184       0.440315

                          3       1    1px               0.603822       0.758711
                          3       1    1py               0.603822       0.758711
                          3       1    1pz               0.603822       0.758711

                          4       1    1dx2              1.143973       2.082748
                          4       1    1dxy              1.143973       3.607426
                          4       1    1dxz              1.143973       3.607426
                          4       1    1dy2              1.143973       2.082748
                          4       1    1dyz              1.143973       3.607426
                          4       1    1dz2              1.143973       2.082748

                          5       1    1px               1.180408       1.753802
                          5       1    1py               1.180408       1.753802
                          5       1    1pz               1.180408       1.753802

                          6       1    1fx3              1.806306       5.568458
                          6       1    1fx2y             1.806306      12.451451
                          6       1    1fx2z             1.806306      12.451451
                          6       1    1fxy2             1.806306      12.451451
                          6       1    1fxyz             1.806306      21.566546
                          6       1    1fxz2             1.806306      12.451451
                          6       1    1fy3              1.806306       5.568458
                          6       1    1fy2z             1.806306      12.451451
                          6       1    1fyz2             1.806306      12.451451
                          6       1    1fz3              1.806306       5.568458

                          7       1    1dx2              1.809637       4.647235
                          7       1    1dxy              1.809637       8.049248
                          7       1    1dxz              1.809637       8.049248
                          7       1    1dy2              1.809637       4.647235
                          7       1    1dyz              1.809637       8.049248
                          7       1    1dz2              1.809637       4.647235

                          8       1    1s                1.873089       1.141114

                          9       1    1px               2.372549       4.197195
                          9       1    1py               2.372549       4.197195
                          9       1    1pz               2.372549       4.197195

                         10       1    1s                8.512828       3.551939

       Atomic covalent radius [Angstrom]:                                  0.320

       Atomic van der Waals radius [Angstrom]:                             1.090

     The atoms of this atomic kind are PAW atoms (GAPW):
       Hard Gaussian function radius:                                      1.200
       Rho0 radius:                                                        1.200
       Maximum GTO radius used for PAW projector construction:            24.566

     GAPW Soft Basis Set                                            cc-pVTZ_soft

       Number of orbital shell sets:                                           3
       Number of orbital shells:                                               6
       Number of primitive Cartesian functions:                                7
       Number of Cartesian basis functions:                                   15
       Number of spherical basis functions:                                   14
       Norm type:                                                              2

       Normalised Cartesian orbitals:

                        Set   Shell   Orbital            Exponent    Coefficient

                          1       1    1s                5.095000       0.000000
                                                         1.159000       0.000000
                                                         0.325800       0.307343
                                                         0.102700       0.000000

                          1       2    2s                5.095000       0.109507
                                                         1.159000       0.161468
                                                         0.325800       0.154871
                                                         0.102700       0.049575

                          1       3    3s                5.095000       0.000000
                                                         1.159000       0.000000
                                                         0.325800       0.000000
                                                         0.102700       0.129297

                          2       1    1px               1.407000       2.184277
                                                         0.388000       0.000000
                          2       1    1py               1.407000       2.184277
                                                         0.388000       0.000000
                          2       1    1pz               1.407000       2.184277
                                                         0.388000       0.000000

                          2       2    2px               1.407000       0.000000
                                                         0.388000       0.436495
                          2       2    2py               1.407000       0.000000
                                                         0.388000       0.436495
                          2       2    2pz               1.407000       0.000000
                                                         0.388000       0.436495

                          3       1    1dx2              1.057000       1.813597
                          3       1    1dxy              1.057000       3.141241
                          3       1    1dxz              1.057000       3.141241
                          3       1    1dy2              1.057000       1.813597
                          3       1    1dyz              1.057000       3.141241
                          3       1    1dz2              1.057000       1.813597

     AE Potential information for                                            ALL

       Description:                                       All-electron potential
                                          Krack, Parrinello, PCCP 2, 2105 (2000)

       Gaussian exponent of the core charge distribution:              12.500000
       Electronic configuration (s p d ...):                           1   0   0

  2. Atomic kind: O                                     Number of atoms:       4

     Orbital Basis Set                                                   cc-pVTZ

       Number of orbital shell sets:                                           4
       Number of orbital shells:                                              10
       Number of primitive Cartesian functions:                               18
       Number of Cartesian basis functions:                                   35
       Number of spherical basis functions:                                   30
       Norm type:                                                              2

       Normalised Cartesian orbitals:

                        Set   Shell   Orbital            Exponent    Coefficient

                          1       1    1px              34.460000       0.000000
                                                         7.749000       0.000000
                                                         2.280000       0.000000
                                                         0.715600       0.938162
                                                         0.214000       0.000000
                          1       1    1py              34.460000       0.000000
                                                         7.749000       0.000000
                                                         2.280000       0.000000
                                                         0.715600       0.938162
                                                         0.214000       0.000000
                          1       1    1pz              34.460000       0.000000
                                                         7.749000       0.000000
                                                         2.280000       0.000000
                                                         0.715600       0.938162
                                                         0.214000       0.000000

                          1       2    2px              34.460000       1.895593
                                                         7.749000       1.838088
                                                         2.280000       1.239963
                                                         0.715600       0.460662
                                                         0.214000       0.069780
                          1       2    2py              34.460000       1.895593
                                                         7.749000       1.838088
                                                         2.280000       1.239963
                                                         0.715600       0.460662
                                                         0.214000       0.069780
                          1       2    2pz              34.460000       1.895593
                                                         7.749000       1.838088
                                                         2.280000       1.239963
                                                         0.715600       0.460662
                                                         0.214000       0.069780

                          1       3    3px              34.460000       0.000000
                                                         7.749000       0.000000
                                                         2.280000       0.000000
                                                         0.715600       0.000000
                                                         0.214000       0.207471
                          1       3    3py              34.460000       0.000000
                                                         7.749000       0.000000
                                                         2.280000       0.000000
                                                         0.715600       0.000000
                                                         0.214000       0.207471
                          1       3    3pz              34.460000       0.000000
                                                         7.749000       0.000000
                                                         2.280000       0.000000
                                                         0.715600       0.000000
                                                         0.214000       0.207471

                          2       1    1s            15330.000000       0.498804
                                                      2299.000000       0.929707
                                                       522.400000       1.576475
                                                       147.300000       2.386068
                                                        47.550000       2.977116
                                                        16.760000       2.556946
                                                         6.207000       0.981661
                                                         1.752000       0.046374
                                                         0.688200      -0.004391
                                                         0.238400       0.000579

                          2       2    2s            15330.000000       0.000000
                                                      2299.000000       0.000000
                                                       522.400000       0.000000
                                                       147.300000       0.000000
                                                        47.550000       0.000000
                                                        16.760000       0.000000
                                                         6.207000       0.000000
                                                         1.752000       1.085327
                                                         0.688200       0.000000
                                                         0.238400       0.000000

                          2       3    3s            15330.000000      -0.112918
                                                      2299.000000      -0.211781
                                                       522.400000      -0.361041
                                                       147.300000      -0.564236
                                                        47.550000      -0.754491
                                                        16.760000      -0.805621
                                                         6.207000      -0.492541
                                                         1.752000       0.174666
                                                         0.688200       0.324949
                                                         0.238400       0.092100

                          2       4    4s            15330.000000       0.000000
                                                      2299.000000       0.000000
                                                       522.400000       0.000000
                                                       147.300000       0.000000
                                                        47.550000       0.000000
                                                        16.760000       0.000000
                                                         6.207000       0.000000
                                                         1.752000       0.000000
                                                         0.688200       0.000000
                                                         0.238400       0.243159

                          3       1    1dx2              2.314000       7.145709
                                                         0.645000       0.000000
                          3       1    1dxy              2.314000      12.376731
                                                         0.645000       0.000000
                          3       1    1dxz              2.314000      12.376731
                                                         0.645000       0.000000
                          3       1    1dy2              2.314000       7.145709
                                                         0.645000       0.000000
                          3       1    1dyz              2.314000      12.376731
                                                         0.645000       0.000000
                          3       1    1dz2              2.314000       7.145709
                                                         0.645000       0.000000

                          3       2    2dx2              2.314000       0.000000
                                                         0.645000       0.764080
                          3       2    2dxy              2.314000       0.000000
                                                         0.645000       1.323426
                          3       2    2dxz              2.314000       0.000000
                                                         0.645000       1.323426
                          3       2    2dy2              2.314000       0.000000
                                                         0.645000       0.764080
                          3       2    2dyz              2.314000       0.000000
                                                         0.645000       1.323426
                          3       2    2dz2              2.314000       0.000000
                                                         0.645000       0.764080

                          4       1    1fx3              1.428000       3.281655
                          4       1    1fx2y             1.428000       7.338004
                          4       1    1fx2z             1.428000       7.338004
                          4       1    1fxy2             1.428000       7.338004
                          4       1    1fxyz             1.428000      12.709795
                          4       1    1fxz2             1.428000       7.338004
                          4       1    1fy3              1.428000       3.281655
                          4       1    1fy2z             1.428000       7.338004
                          4       1    1fyz2             1.428000       7.338004
                          4       1    1fz3              1.428000       3.281655

     RI Auxiliary Basis Set                                        cc-pVTZ-RIFIT

       Number of orbital shell sets:                                          23
       Number of orbital shells:                                              23
       Number of primitive Cartesian functions:                               23
       Number of Cartesian basis functions:                                  101
       Number of spherical basis functions:                                   81
       Norm type:                                                              2

       Normalised Cartesian orbitals:

                        Set   Shell   Orbital            Exponent    Coefficient

                          1       1    1s                0.365053       0.334716

                          2       1    1dx2              0.503534       0.495404
                          2       1    1dxy              0.503534       0.858066
                          2       1    1dxz              0.503534       0.858066
                          2       1    1dy2              0.503534       0.495404
                          2       1    1dyz              0.503534       0.858066
                          2       1    1dz2              0.503534       0.495404

                          3       1    1px               0.518456       0.627090
                          3       1    1py               0.518456       0.627090
                          3       1    1pz               0.518456       0.627090

                          4       1    1s                0.812507       0.609930

                          5       1    1px               0.974192       1.379577
                          5       1    1py               0.974192       1.379577
                          5       1    1pz               0.974192       1.379577

                          6       1    1fx3              1.089407       1.784975
                          6       1    1fx2y             1.089407       3.991326
                          6       1    1fx2z             1.089407       3.991326
                          6       1    1fxy2             1.089407       3.991326
                          6       1    1fxyz             1.089407       6.913179
                          6       1    1fxz2             1.089407       3.991326
                          6       1    1fy3              1.089407       1.784975
                          6       1    1fy2z             1.089407       3.991326
                          6       1    1fyz2             1.089407       3.991326
                          6       1    1fz3              1.089407       1.784975

                          7       1    1dx2              1.162446       2.141962
                          7       1    1dxy              1.162446       3.709987
                          7       1    1dxz              1.162446       3.709987
                          7       1    1dy2              1.162446       2.141962
                          7       1    1dyz              1.162446       3.709987
                          7       1    1dz2              1.162446       2.141962

                          8       1    1s                1.333156       0.884242

                          9       1    1fx3              2.151279       8.251294
                          9       1    1fx2y             2.151279      18.450455
                          9       1    1fx2z             2.151279      18.450455
                          9       1    1fxy2             2.151279      18.450455
                          9       1    1fxyz             2.151279      31.957126
                          9       1    1fxz2             2.151279      18.450455
                          9       1    1fy3              2.151279       8.251294
                          9       1    1fy2z             2.151279      18.450455
                          9       1    1fyz2             2.151279      18.450455
                          9       1    1fz3              2.151279       8.251294

                         10       1    1px               2.167884       3.749602
                         10       1    1py               2.167884       3.749602
                         10       1    1pz               2.167884       3.749602

                         11       1    1gx4              2.327096      11.354683
                         11       1    1gx3y             2.327096      30.041666
                         11       1    1gx3z             2.327096      30.041666
                         11       1    1gx2y2            2.327096      38.783625
                         11       1    1gx2yz            2.327096      67.175208
                         11       1    1gx2z2            2.327096      38.783625
                         11       1    1gxy3             2.327096      30.041666
                         11       1    1gxy2z            2.327096      67.175208
                         11       1    1gxyz2            2.327096      67.175208
                         11       1    1gxz3             2.327096      30.041666
                         11       1    1gy4              2.327096      11.354683
                         11       1    1gy3z             2.327096      30.041666
                         11       1    1gy2z2            2.327096      38.783625
                         11       1    1gyz3             2.327096      30.041666
                         11       1    1gz4              2.327096      11.354683

                         12       1    1dx2              2.955262      10.963584
                         12       1    1dxy              2.955262      18.989484
                         12       1    1dxz              2.955262      18.989484
                         12       1    1dy2              2.955262      10.963584
                         12       1    1dyz              2.955262      18.989484
                         12       1    1dz2              2.955262      10.963584

                         13       1    1s                3.020208       1.632818

                         14       1    1px               3.913772       7.846654
                         14       1    1py               3.913772       7.846654
                         14       1    1pz               3.913772       7.846654

                         15       1    1fx3              4.687385      47.593571
                         15       1    1fx2y             4.687385     106.422459
                         15       1    1fx2z             4.687385     106.422459
                         15       1    1fxy2             4.687385     106.422459
                         15       1    1fxyz             4.687385     184.329107
                         15       1    1fxz2             4.687385     106.422459
                         15       1    1fy3              4.687385      47.593571
                         15       1    1fy2z             4.687385     106.422459
                         15       1    1fyz2             4.687385     106.422459
                         15       1    1fz3              4.687385      47.593571

                         16       1    1dx2              5.379933      31.280160
                         16       1    1dxy              5.379933      54.178826
                         16       1    1dxz              5.379933      54.178826
                         16       1    1dy2              5.379933      31.280160
                         16       1    1dyz              5.379933      54.178826
                         16       1    1dz2              5.379933      31.280160

                         17       1    1s                8.416559       3.521770

                         18       1    1px              15.021796      42.154351
                         18       1    1py              15.021796      42.154351
                         18       1    1pz              15.021796      42.154351

                         19       1    1dx2             15.907733     208.556618
                         19       1    1dxy             15.907733     361.230658
                         19       1    1dxz             15.907733     361.230658
                         19       1    1dy2             15.907733     208.556618
                         19       1    1dyz             15.907733     361.230658
                         19       1    1dz2             15.907733     208.556618

                         20       1    1s               24.573835       7.866197

                         21       1    1px              52.854386     203.138098
                         21       1    1py              52.854386     203.138098
                         21       1    1pz              52.854386     203.138098

                         22       1    1s               76.693315      18.470482

                         23       1    1s              366.545315      59.704332

       Atomic covalent radius [Angstrom]:                                  0.730

       Atomic van der Waals radius [Angstrom]:                             1.520

     The atoms of this atomic kind are PAW atoms (GAPW):
       Hard Gaussian function radius:                                      1.512
       Rho0 radius:                                                        1.512
       Maximum GTO radius used for PAW projector construction:            24.566

     GAPW Soft Basis Set                                            cc-pVTZ_soft

       Number of orbital shell sets:                                           4
       Number of orbital shells:                                              10
       Number of primitive Cartesian functions:                                9
       Number of Cartesian basis functions:                                   35
       Number of spherical basis functions:                                   30
       Norm type:                                                              2

       Normalised Cartesian orbitals:

                        Set   Shell   Orbital            Exponent    Coefficient

                          1       1    1px               2.280000       0.000000
                                                         0.715600       0.938162
                                                         0.214000       0.000000
                          1       1    1py               2.280000       0.000000
                                                         0.715600       0.938162
                                                         0.214000       0.000000
                          1       1    1pz               2.280000       0.000000
                                                         0.715600       0.938162
                                                         0.214000       0.000000

                          1       2    2px               2.280000       1.239963
                                                         0.715600       0.460662
                                                         0.214000       0.069780
                          1       2    2py               2.280000       1.239963
                                                         0.715600       0.460662
                                                         0.214000       0.069780
                          1       2    2pz               2.280000       1.239963
                                                         0.715600       0.460662
                                                         0.214000       0.069780

                          1       3    3px               2.280000       0.000000
                                                         0.715600       0.000000
                                                         0.214000       0.207471
                          1       3    3py               2.280000       0.000000
                                                         0.715600       0.000000
                                                         0.214000       0.207471
                          1       3    3pz               2.280000       0.000000
                                                         0.715600       0.000000
                                                         0.214000       0.207471

                          2       1    1s                1.752000       0.046374
                                                         0.688200      -0.004391
                                                         0.238400       0.000579

                          2       2    2s                1.752000       1.085327
                                                         0.688200       0.000000
                                                         0.238400       0.000000

                          2       3    3s                1.752000       0.174666
                                                         0.688200       0.324949
                                                         0.238400       0.092100

                          2       4    4s                1.752000       0.000000
                                                         0.688200       0.000000
                                                         0.238400       0.243159

                          3       1    1dx2              2.314000       7.145709
                                                         0.645000       0.000000
                          3       1    1dxy              2.314000      12.376731
                                                         0.645000       0.000000
                          3       1    1dxz              2.314000      12.376731
                                                         0.645000       0.000000
                          3       1    1dy2              2.314000       7.145709
                                                         0.645000       0.000000
                          3       1    1dyz              2.314000      12.376731
                                                         0.645000       0.000000
                          3       1    1dz2              2.314000       7.145709
                                                         0.645000       0.000000

                          3       2    2dx2              2.314000       0.000000
                                                         0.645000       0.764080
                          3       2    2dxy              2.314000       0.000000
                                                         0.645000       1.323426
                          3       2    2dxz              2.314000       0.000000
                                                         0.645000       1.323426
                          3       2    2dy2              2.314000       0.000000
                                                         0.645000       0.764080
                          3       2    2dyz              2.314000       0.000000
                                                         0.645000       1.323426
                          3       2    2dz2              2.314000       0.000000
                                                         0.645000       0.764080

                          4       1    1fx3              1.428000       3.281655
                          4       1    1fx2y             1.428000       7.338004
                          4       1    1fx2z             1.428000       7.338004
                          4       1    1fxy2             1.428000       7.338004
                          4       1    1fxyz             1.428000      12.709795
                          4       1    1fxz2             1.428000       7.338004
                          4       1    1fy3              1.428000       3.281655
                          4       1    1fy2z             1.428000       7.338004
                          4       1    1fyz2             1.428000       7.338004
                          4       1    1fz3              1.428000       3.281655

     AE Potential information for                                            ALL

       Description:                                       All-electron potential
                                          Krack, Parrinello, PCCP 2, 2105 (2000)

       Gaussian exponent of the core charge distribution:               8.154466
       Electronic configuration (s p d ...):                           4   4   0

  3. Atomic kind: N                                     Number of atoms:       2

     Orbital Basis Set                                                   cc-pVTZ

       Number of orbital shell sets:                                           4
       Number of orbital shells:                                              10
       Number of primitive Cartesian functions:                               18
       Number of Cartesian basis functions:                                   35
       Number of spherical basis functions:                                   30
       Norm type:                                                              2

       Normalised Cartesian orbitals:

                        Set   Shell   Orbital            Exponent    Coefficient

                          1       1    1px              26.630000       0.000000
                                                         5.948000       0.000000
                                                         1.742000       0.000000
                                                         0.555000       0.682820
                                                         0.172500       0.000000
                          1       1    1py              26.630000       0.000000
                                                         5.948000       0.000000
                                                         1.742000       0.000000
                                                         0.555000       0.682820
                                                         0.172500       0.000000
                          1       1    1pz              26.630000       0.000000
                                                         5.948000       0.000000
                                                         1.742000       0.000000
                                                         0.555000       0.682820
                                                         0.172500       0.000000

                          1       2    2px              26.630000       1.264982
                                                         5.948000       1.215000
                                                         1.742000       0.852042
                                                         0.555000       0.340377
                                                         0.172500       0.053406
                          1       2    2py              26.630000       1.264982
                                                         5.948000       1.215000
                                                         1.742000       0.852042
                                                         0.555000       0.340377
                                                         0.172500       0.053406
                          1       2    2pz              26.630000       1.264982
                                                         5.948000       1.215000
                                                         1.742000       0.852042
                                                         0.555000       0.340377
                                                         0.172500       0.053406

                          1       3    3px              26.630000       0.000000
                                                         5.948000       0.000000
                                                         1.742000       0.000000
                                                         0.555000       0.000000
                                                         0.172500       0.158462
                          1       3    3py              26.630000       0.000000
                                                         5.948000       0.000000
                                                         1.742000       0.000000
                                                         0.555000       0.000000
                                                         0.172500       0.158462
                          1       3    3pz              26.630000       0.000000
                                                         5.948000       0.000000
                                                         1.742000       0.000000
                                                         0.555000       0.000000
                                                         0.172500       0.158462

                          2       1    1s            11420.000000       0.411776
                                                      1712.000000       0.767284
                                                       389.300000       1.297670
                                                       110.000000       1.954219
                                                        35.570000       2.419449
                                                        12.540000       2.058842
                                                         4.644000       0.783427
                                                         1.293000       0.035658
                                                         0.511800      -0.003669
                                                         0.178700       0.000467

                          2       2    2s            11420.000000       0.000000
                                                      1712.000000       0.000000
                                                       389.300000       0.000000
                                                       110.000000       0.000000
                                                        35.570000       0.000000
                                                        12.540000       0.000000
                                                         4.644000       0.000000
                                                         1.293000       0.864190
                                                         0.511800       0.000000
                                                         0.178700       0.000000

                          2       3    3s            11420.000000      -0.090544
                                                      1712.000000      -0.169770
                                                       389.300000      -0.288829
                                                       110.000000      -0.448521
                                                        35.570000      -0.595214
                                                        12.540000      -0.627274
                                                         4.644000      -0.388950
                                                         1.293000       0.131196
                                                         0.511800       0.258729
                                                         0.178700       0.075898

                          2       4    4s            11420.000000       0.000000
                                                      1712.000000       0.000000
                                                       389.300000       0.000000
                                                       110.000000       0.000000
                                                        35.570000       0.000000
                                                        12.540000       0.000000
                                                         4.644000       0.000000
                                                         1.293000       0.000000
                                                         0.511800       0.000000
                                                         0.178700       0.195886

                          3       1    1dx2              1.654000       3.970513
                                                         0.469000       0.000000
                          3       1    1dxy              1.654000       6.877130
                                                         0.469000       0.000000
                          3       1    1dxz              1.654000       6.877130
                                                         0.469000       0.000000
                          3       1    1dy2              1.654000       3.970513
                                                         0.469000       0.000000
                          3       1    1dyz              1.654000       6.877130
                                                         0.469000       0.000000
                          3       1    1dz2              1.654000       3.970513
                                                         0.469000       0.000000

                          3       2    2dx2              1.654000       0.000000
                                                         0.469000       0.437484
                          3       2    2dxy              1.654000       0.000000
                                                         0.469000       0.757744
                          3       2    2dxz              1.654000       0.000000
                                                         0.469000       0.757744
                          3       2    2dy2              1.654000       0.000000
                                                         0.469000       0.437484
                          3       2    2dyz              1.654000       0.000000
                                                         0.469000       0.757744
                          3       2    2dz2              1.654000       0.000000
                                                         0.469000       0.437484

                          4       1    1fx3              1.093000       1.798249
                          4       1    1fx2y             1.093000       4.021007
                          4       1    1fx2z             1.093000       4.021007
                          4       1    1fxy2             1.093000       4.021007
                          4       1    1fxyz             1.093000       6.964588
                          4       1    1fxz2             1.093000       4.021007
                          4       1    1fy3              1.093000       1.798249
                          4       1    1fy2z             1.093000       4.021007
                          4       1    1fyz2             1.093000       4.021007
                          4       1    1fz3              1.093000       1.798249

     RI Auxiliary Basis Set                                        cc-pVTZ-RIFIT

       Number of orbital shell sets:                                          23
       Number of orbital shells:                                              23
       Number of primitive Cartesian functions:                               23
       Number of Cartesian basis functions:                                  101
       Number of spherical basis functions:                                   81
       Norm type:                                                              2

       Normalised Cartesian orbitals:

                        Set   Shell   Orbital            Exponent    Coefficient

                          1       1    1s                0.311588       0.297232

                          2       1    1px               0.373533       0.416247
                          2       1    1py               0.373533       0.416247
                          2       1    1pz               0.373533       0.416247

                          3       1    1dx2              0.419484       0.359883
                          3       1    1dxy              0.419484       0.623335
                          3       1    1dxz              0.419484       0.623335
                          3       1    1dy2              0.419484       0.359883
                          3       1    1dyz              0.419484       0.623335
                          3       1    1dz2              0.419484       0.359883

                          4       1    1s                0.766748       0.583982

                          5       1    1dx2              0.837683       1.207255
                          5       1    1dxy              0.837683       2.091027
                          5       1    1dxz              0.837683       2.091027
                          5       1    1dy2              0.837683       1.207255
                          5       1    1dyz              0.837683       2.091027
                          5       1    1dz2              0.837683       1.207255

                          6       1    1fx3              0.846776       1.012591
                          6       1    1fx2y             0.846776       2.264223
                          6       1    1fx2z             0.846776       2.264223
                          6       1    1fxy2             0.846776       2.264223
                          6       1    1fxyz             0.846776       3.921748
                          6       1    1fxz2             0.846776       2.264223
                          6       1    1fy3              0.846776       1.012591
                          6       1    1fy2z             0.846776       2.264223
                          6       1    1fyz2             0.846776       2.264223
                          6       1    1fz3              0.846776       1.012591

                          7       1    1px               0.850834       1.164786
                          7       1    1py               0.850834       1.164786
                          7       1    1pz               0.850834       1.164786

                          8       1    1s                1.222668       0.828689

                          9       1    1px               1.407740       2.185714
                          9       1    1py               1.407740       2.185714
                          9       1    1pz               1.407740       2.185714

                         10       1    1fx3              1.558946       3.997832
                         10       1    1fx2y             1.558946       8.939425
                         10       1    1fx2z             1.558946       8.939425
                         10       1    1fxy2             1.558946       8.939425
                         10       1    1fxyz             1.558946      15.483538
                         10       1    1fxz2             1.558946       8.939425
                         10       1    1fy3              1.558946       3.997832
                         10       1    1fy2z             1.558946       8.939425
                         10       1    1fyz2             1.558946       8.939425
                         10       1    1fz3              1.558946       3.997832

                         11       1    1gx4              1.776407       5.403523
                         11       1    1gx3y             1.776407      14.296377
                         11       1    1gx3z             1.776407      14.296377
                         11       1    1gx2y2            1.776407      18.456544
                         11       1    1gx2yz            1.776407      31.967672
                         11       1    1gx2z2            1.776407      18.456544
                         11       1    1gxy3             1.776407      14.296377
                         11       1    1gxy2z            1.776407      31.967672
                         11       1    1gxyz2            1.776407      31.967672
                         11       1    1gxz3             1.776407      14.296377
                         11       1    1gy4              1.776407       5.403523
                         11       1    1gy3z             1.776407      14.296377
                         11       1    1gy2z2            1.776407      18.456544
                         11       1    1gyz3             1.776407      14.296377
                         11       1    1gz4              1.776407       5.403523

                         12       1    1dx2              2.210185       6.594160
                         12       1    1dxy              2.210185      11.421421
                         12       1    1dxz              2.210185      11.421421
                         12       1    1dy2              2.210185       6.594160
                         12       1    1dyz              2.210185      11.421421
                         12       1    1dz2              2.210185       6.594160

                         13       1    1s                2.431967       1.387965

                         14       1    1px               2.898158       5.390049
                         14       1    1py               2.898158       5.390049
                         14       1    1pz               2.898158       5.390049

                         15       1    1fx3              3.473067      24.241470
                         15       1    1fx2y             3.473067      54.205574
                         15       1    1fx2z             3.473067      54.205574
                         15       1    1fxy2             3.473067      54.205574
                         15       1    1fxyz             3.473067      93.886808
                         15       1    1fxz2             3.473067      54.205574
                         15       1    1fy3              3.473067      24.241470
                         15       1    1fy2z             3.473067      54.205574
                         15       1    1fyz2             3.473067      54.205574
                         15       1    1fz3              3.473067      24.241470

                         16       1    1dx2              4.584723      23.643264
                         16       1    1dxy              4.584723      40.951334
                         16       1    1dxz              4.584723      40.951334
                         16       1    1dy2              4.584723      23.643264
                         16       1    1dyz              4.584723      40.951334
                         16       1    1dz2              4.584723      23.643264

                         17       1    1s                7.906874       3.360576

                         18       1    1px              10.323897      26.378169
                         18       1    1py              10.323897      26.378169
                         18       1    1pz              10.323897      26.378169

                         19       1    1dx2             13.908637     164.876008
                         19       1    1dxy             13.908637     285.573622
                         19       1    1dxz             13.908637     285.573622
                         19       1    1dy2             13.908637     164.876008
                         19       1    1dyz             13.908637     285.573622
                         19       1    1dz2             13.908637     164.876008

                         20       1    1s               21.681924       7.161161

                         21       1    1px              34.965027     121.194365
                         21       1    1py              34.965027     121.194365
                         21       1    1pz              34.965027     121.194365

                         22       1    1s               64.276031      16.178821

                         23       1    1s              287.509269      49.762132

       Atomic covalent radius [Angstrom]:                                  0.750

       Atomic van der Waals radius [Angstrom]:                             1.550

     The atoms of this atomic kind are PAW atoms (GAPW):
       Hard Gaussian function radius:                                      1.512
       Rho0 radius:                                                        1.512
       Maximum GTO radius used for PAW projector construction:            24.566

     GAPW Soft Basis Set                                            cc-pVTZ_soft

       Number of orbital shell sets:                                           4
       Number of orbital shells:                                              10
       Number of primitive Cartesian functions:                                9
       Number of Cartesian basis functions:                                   35
       Number of spherical basis functions:                                   30
       Norm type:                                                              2

       Normalised Cartesian orbitals:

                        Set   Shell   Orbital            Exponent    Coefficient

                          1       1    1px               1.742000       0.000000
                                                         0.555000       0.682820
                                                         0.172500       0.000000
                          1       1    1py               1.742000       0.000000
                                                         0.555000       0.682820
                                                         0.172500       0.000000
                          1       1    1pz               1.742000       0.000000
                                                         0.555000       0.682820
                                                         0.172500       0.000000

                          1       2    2px               1.742000       0.852042
                                                         0.555000       0.340377
                                                         0.172500       0.053406
                          1       2    2py               1.742000       0.852042
                                                         0.555000       0.340377
                                                         0.172500       0.053406
                          1       2    2pz               1.742000       0.852042
                                                         0.555000       0.340377
                                                         0.172500       0.053406

                          1       3    3px               1.742000       0.000000
                                                         0.555000       0.000000
                                                         0.172500       0.158462
                          1       3    3py               1.742000       0.000000
                                                         0.555000       0.000000
                                                         0.172500       0.158462
                          1       3    3pz               1.742000       0.000000
                                                         0.555000       0.000000
                                                         0.172500       0.158462

                          2       1    1s                1.293000       0.035658
                                                         0.511800      -0.003669
                                                         0.178700       0.000467

                          2       2    2s                1.293000       0.864190
                                                         0.511800       0.000000
                                                         0.178700       0.000000

                          2       3    3s                1.293000       0.131196
                                                         0.511800       0.258729
                                                         0.178700       0.075898

                          2       4    4s                1.293000       0.000000
                                                         0.511800       0.000000
                                                         0.178700       0.195886

                          3       1    1dx2              1.654000       3.970513
                                                         0.469000       0.000000
                          3       1    1dxy              1.654000       6.877130
                                                         0.469000       0.000000
                          3       1    1dxz              1.654000       6.877130
                                                         0.469000       0.000000
                          3       1    1dy2              1.654000       3.970513
                                                         0.469000       0.000000
                          3       1    1dyz              1.654000       6.877130
                                                         0.469000       0.000000
                          3       1    1dz2              1.654000       3.970513
                                                         0.469000       0.000000

                          3       2    2dx2              1.654000       0.000000
                                                         0.469000       0.437484
                          3       2    2dxy              1.654000       0.000000
                                                         0.469000       0.757744
                          3       2    2dxz              1.654000       0.000000
                                                         0.469000       0.757744
                          3       2    2dy2              1.654000       0.000000
                                                         0.469000       0.437484
                          3       2    2dyz              1.654000       0.000000
                                                         0.469000       0.757744
                          3       2    2dz2              1.654000       0.000000
                                                         0.469000       0.437484

                          4       1    1fx3              1.093000       1.798249
                          4       1    1fx2y             1.093000       4.021007
                          4       1    1fx2z             1.093000       4.021007
                          4       1    1fxy2             1.093000       4.021007
                          4       1    1fxyz             1.093000       6.964588
                          4       1    1fxz2             1.093000       4.021007
                          4       1    1fy3              1.093000       1.798249
                          4       1    1fy2z             1.093000       4.021007
                          4       1    1fyz2             1.093000       4.021007
                          4       1    1fz3              1.093000       1.798249

     AE Potential information for                                            ALL

       Description:                                       All-electron potential
                                          Krack, Parrinello, PCCP 2, 2105 (2000)

       Gaussian exponent of the core charge distribution:               5.979100
       Electronic configuration (s p d ...):                           4   3   0

[...]
 eigensolver_symm                    61  6.0    0.002    0.002    3.342    3.355
 dbt_contract                         4  9.0    0.001    0.001    2.281    3.036
 put_rho0_on_grid                    61  9.0    0.144    0.182    2.724    2.775
 transfer_pw2rs_250                 123 10.9    0.878    1.005    2.643    2.721
 integrate_vhg0_rspace               61  8.0    0.077    0.105    2.630    2.659
 calc_pair_dist_radii                 1 10.0    0.738    0.769    2.310    2.468
 create_qs_kind_set                   1  2.0    0.000    0.000    2.414    2.415
 read_qs_kind                         4  3.0    1.314    1.339    2.414    2.415
 rs_gather_matrices                  61 10.0    0.006    0.010    2.270    2.403
 mp_waitall_1                     64186 12.0    1.487    2.351    1.487    2.351
 grid_integrate_task_list            61 10.0    0.127    2.349    0.127    2.349
 rpa_num_int_RPA_matrix_operati     100  7.0    0.001    0.003    2.333    2.334
 mp_sum_dm                         3359  7.6    2.048    2.139    2.048    2.139
 calculate_vxc_atom                  61  8.0    0.046    0.356    1.871    1.872
 calc_mat_Q                         100  8.0    0.000    0.001    1.811    1.823
 contract_S_to_Q                    100  9.0    0.001    0.001    1.795    1.807
 dbt_tas_multiply                     8 11.5    0.000    0.000    1.518    1.518
 dbt_tas_total                        8 12.5    0.002    0.003    1.518    1.518
 create_B                             1  8.0    0.000    0.000    1.471    1.500
 gaVxcgb_GC                         120  9.0    0.038    1.431    0.038    1.431
 create_A                             1  8.0    0.002    0.002    0.591    1.383
 qs_energies_init_hamiltonians        1  3.0    0.000    0.000    1.382    1.382
 build_core_hamiltonian_matrix        1  4.0    0.000    0.000    1.370    1.370
 overlap_condnum                      1  5.0    0.000    0.000    1.366    1.368
 transfer_rs2pw_30                   61  9.0    0.576    0.607    1.309    1.329
 transfer_pw2rs_30                   61 12.0    0.559    0.618    1.261    1.328
 mp_cart_create                     481 10.1    1.073    1.285    1.073    1.286
 dbt_pgrid_create_expert             84 10.8    0.000    0.000    1.041    1.244
 arnoldi_conjugate_gradient           5  6.0    0.028    0.033    1.209    1.209
 fm_general_add_bse                   5 10.2    0.000    0.000    0.368    1.172
 cp_fm_syrk                           3  7.0    1.026    1.160    1.026    1.160
 calculate_rho_atom_coeff            61  6.0    0.019    0.032    1.156    1.156
 mp_waitall_2                        48 15.8    0.124    1.147    0.124    1.147
 parser_read_line                279322  4.0    0.094    0.102    1.100    1.125
 xc_functional_eval                 300 10.9    0.001    0.001    0.780    1.064
 pbe_lda_eval                       300 11.9    0.779    1.063    0.779    1.063
 parser_read_line_low               304  5.0    0.088    0.424    1.006    1.032
 mp_sendrecv_dv                   26230 10.0    0.989    1.020    0.989    1.020
 pw_scatter_p                       665 12.1    0.866    0.994    0.866    0.994
 broadcast_input_information        304  6.0    0.211    0.230    0.919    0.982
 dbt_copy                            12 10.1    0.000    0.001    0.212    0.945
 cp_fm_cholesky_invert              101  8.0    0.851    0.902    0.851    0.902
 dbt_reshape                          8 11.6    0.029    0.036    0.155    0.888
 mp_sum_iv                          295  9.6    0.827    0.855    0.827    0.855
 dbt_communicate_buffer               8 12.6    0.002    0.002    0.112    0.844
 fm_general_add_bse_5_comm_buff       5 11.2    0.000    0.000    0.058    0.837
 communicate_buffer                   5 12.2    0.001    0.001    0.058    0.837
 pw_gather_p                        607 11.8    0.672    0.816    0.672    0.816
 cp2k_distribution_to_z_slices       61  9.0    0.281    0.312    0.658    0.802
 transfer_rs2pw_90                   61  9.0    0.152    0.182    0.656    0.775
 calculate_rho_atom                 244  9.0    0.390    0.749    0.390    0.749
 transfer_pw2rs_90                   61 12.0    0.145    0.170    0.654    0.743
 dbcsr_sym_matrix_vector_mult      4135  7.0    0.065    0.072    0.662    0.741
 mp_sum_dv                        23593 10.7    0.624    0.739    0.624    0.739
 rs_grid_zero                       307 11.1    0.715    0.737    0.715    0.737
 dbt_tas_replicate                    8 13.5    0.042    0.057    0.100    0.733
 fft_wrap_pw1pw2_90                 122 10.5    0.018    0.032    0.628    0.715
 dbt_remap                            8 10.0    0.002    0.002    0.681    0.681
 dbt_tas_communicate_buffer          16 15.9    0.003    0.003    0.026    0.662
 dbt_tas_replicate_communicate_       6 14.5    0.000    0.000    0.019    0.656
 compute_vec_Sigma_x_minus_vxc_       1  4.0    0.000    0.000    0.654    0.654
 mp_isendrecv_dv                  52460 12.0    0.365    0.649    0.365    0.649
 pw_derive                          543 11.3    0.594    0.639    0.594    0.639
 pw_poisson_rebuild                  61  9.0    0.000    0.000    0.605    0.628
 ps_wavelet_create                    1 10.0    0.000    0.000    0.604    0.628
 RS_z_slice_distribution              1 11.0    0.499    0.560    0.604    0.628
 dbt_nd_mp_comm                       8 11.0    0.000    0.000    0.596    0.627
 mp2_eri_3c_integrate                 1  7.0    0.007    0.013    0.213    0.615
 integrate_set_3c                 10780  8.0    0.184    0.549    0.206    0.606
 dbt_tas_dbm                          8 13.5    0.000    0.000    0.558    0.558
 cp_fm_cholesky_decompose           102  9.0    0.524    0.536    0.524    0.536
 dbm_multiply                         8 15.5    0.409    0.535    0.409    0.535
 dbt_tas_mm_1N                        6 14.5    0.000    0.000    0.396    0.522
 mp_bcast_i_src                    1216  7.0    0.312    0.516    0.312    0.516
 calculate_dm_sparse                 60  6.0    0.000    0.001    0.475    0.501
 compute_Erpa_by_freq_int           100  8.0    0.002    0.002    0.500    0.500
 cp_dbcsr_plus_fm_fm_t               60  7.0    0.001    0.001    0.474    0.500
 pw_copy                            910 10.6    0.456    0.498    0.456    0.498
 mp_bcast_am_src                    304  7.0    0.355    0.438    0.384    0.478
 mp_sum_l                           911  6.0    0.395    0.469    0.395    0.469
 integrate_four_center_load          61 10.0    0.000    0.001    0.380    0.451
 hfx_load_balance                     1 11.0    0.000    0.000    0.379    0.451
 dbcsr_complete_redistribute        215  8.5    0.021    0.024    0.424    0.447
 hfx_load_balance_range               1 12.0    0.000    0.000    0.351    0.422
 mp_bcast_dv                       4201  9.0    0.201    0.421    0.201    0.421
 transfer_pw2rs_10                   61 12.0    0.146    0.186    0.393    0.414
 transfer_rs2pw_10                   61  9.0    0.148    0.159    0.404    0.414
 pw_copy_to_array                   607 11.8    0.260    0.393    0.260    0.393
 integrate_four_center_getP          61 10.0    0.030    0.035    0.382    0.388
 cp_fm_to_fm_submat_general         112 10.1    0.255    0.387    0.255    0.387
 dbcsr_add_d                       6248  7.0    0.006    0.007    0.056    0.375
 pw_poisson_set                      62  8.9    0.002    0.002    0.363    0.370
 dbcsr_add_anytype                 6248  8.0    0.008    0.048    0.051    0.368
 mp_irecv_dm3                      2208 11.5    0.148    0.363    0.148    0.363
 integrate_four_center_dist_KS       61 10.0    0.027    0.033    0.353    0.354
 mp2_main_alloc_hfx                   1  4.0    0.158    0.353    0.158    0.353
 mp_isend_dm3                      2208 11.5    0.145    0.350    0.145    0.350
 init_scf_run                         1  3.0    0.000    0.000    0.341    0.341
 mp_sum_i                            21  9.7    0.198    0.332    0.198    0.332
 restraint_control                    1  2.0    0.000    0.000    0.197    0.331
 dbt_tas_estimate_result_nze          4 12.0    0.005    0.006    0.327    0.327
 dbcsr_multiply_generic             105  8.1    0.006    0.006    0.301    0.322
 copy_dbcsr_to_fm                    91  6.6    0.002    0.008    0.305    0.312
 mp_max_i                           613  2.7    0.146    0.304    0.146    0.304
 pw_integral_ab_c1d_c1d_gs           61  9.0    0.198    0.201    0.270    0.296
 qs_init_subsys                       1  2.0    0.004    0.005    0.291    0.292
 Vh_1c_gg_integrals                  61  8.0    0.008    0.103    0.151    0.290
 dbcsr_col_vec_to_rep_row          4135  8.0    0.029    0.033    0.223    0.288
 copy_fm_to_dbcsr                   124  8.1    0.001    0.001    0.263    0.284
 scf_env_initial_rho_setup            1  4.0    0.000    0.000    0.279    0.280
 qs_env_setup                         1  3.0    0.000    0.000    0.272    0.276
 qs_env_rebuild_pw_env                2  3.5    0.000    0.000    0.270    0.275
 pw_env_rebuild                       1  5.0    0.001    0.001    0.270    0.275
 fft_wrap_pw1pw2_30                 122 10.5    0.004    0.004    0.248    0.259
 dbcsr_rep_row_to_rep_col_vec      4135  8.0    0.021    0.024    0.118    0.256
 mp_alltoall_z11v                   244 13.5    0.241    0.251    0.241    0.251
 pw_axpy                            605  9.3    0.222    0.249    0.222    0.249
 pw_copy_from_array                 665 12.1    0.198    0.248    0.198    0.248
 cp_fm_redistribute_start            66  8.0    0.110    0.171    0.169    0.236
 dbcsr_finalize                    7592 10.5    0.010    0.078    0.039    0.231
 create_integ_mat                     4  6.0    0.003    0.003    0.208    0.231
 array2fm                             4  7.0    0.000    0.000    0.182    0.222
 dbcsr_desymmetrize_deep             93  7.6    0.005    0.006    0.202    0.207
 mp_isend_dv                      20088 12.0    0.131    0.189    0.131    0.189
 mp_alltoall_i11v                   738  9.3    0.182    0.185    0.182    0.185
 cp_fm_uplo_to_full                 104  8.0    0.057    0.182    0.057    0.182
 pw_grid_setup                        4  6.0    0.000    0.000    0.168    0.173
 pw_grid_setup_internal               4  7.0    0.003    0.004    0.168    0.173
 update_ks_atom                      61  8.0    0.015    0.029    0.122    0.172
 hybrid_alltoall_any                303 11.0    0.021    0.023    0.154    0.163
 offload_free_buffer                 69  8.3    0.134    0.162    0.134    0.162
 multiply_cannon                    105  9.1    0.012    0.012    0.146    0.161
 yz_to_xz                           122 14.0    0.011    0.013    0.149    0.160
 mp_bcast_dm                       2196  9.0    0.107    0.153    0.107    0.153
 pw_zero                            362 10.3    0.118    0.133    0.118    0.133
 multiply_cannon_loop               105 10.1    0.016    0.017    0.112    0.129
 fft_wrap_pw1pw2_10                 122 10.5    0.001    0.001    0.125    0.127
 make_m2s                           210  9.1    0.005    0.005    0.116    0.124
 cp_fm_symm                          61  7.0    0.108    0.116    0.108    0.116
 dbcsr_iterator_start             50232  8.7    0.058    0.092    0.069    0.114
 xz_to_yz                           122 11.0    0.008    0.009    0.110    0.113
 array2fm_info                        4  8.0    0.085    0.111    0.088    0.112
 dbcsr_merge_all                   6869 11.2    0.013    0.087    0.023    0.111
 dbcsr_copy                       17143  7.6    0.062    0.069    0.100    0.109
 mp_rank_compare                   1272 12.9    0.104    0.107    0.104    0.107
 mult_B_with_W                        1  8.0    0.000    0.000    0.096    0.107
 fm_general_add_bse_4_buf_from_       1 10.0    0.083    0.103    0.083    0.103
 compute_max_radius                   1  6.0    0.040    0.096    0.040    0.096
 fm_general_add_bse_1_setup           5 11.2    0.086    0.095    0.086    0.095
 rs_scatter_matrices                 61  7.0    0.001    0.004    0.091    0.094
 mp_alltoall_i22                    308  9.2    0.068    0.090    0.068    0.090
 fm_general_add_bse_4_buf_from_       1 10.0    0.073    0.086    0.073    0.086
 make_images                        210 10.1    0.015    0.016    0.078    0.084
 mp_bcast_iv                        395  6.6    0.030    0.078    0.030    0.078
 array2fm_fill                        4  8.0    0.019    0.029    0.036    0.078
 postprocess_bse                      1  9.0    0.000    0.000    0.074    0.077
 dbt_split_blocks_generic            20  8.8    0.023    0.026    0.072    0.075
 dbcsr_iterator_stop              50232  8.7    0.043    0.061    0.052    0.073
 pw_grid_sort                         4  8.0    0.043    0.045    0.067    0.070
 vxc_of_r_new                       240  9.0    0.000    0.011    0.003    0.070
 scale_and_distribute               122 10.0    0.061    0.066    0.061    0.066
 mp_wait                            123  9.0    0.017    0.061    0.017    0.061
 dbcsr_create_new                 19334  8.8    0.042    0.045    0.054    0.059
 rs_grid_create_descriptor            4  6.0    0.001    0.001    0.058    0.059
 scf_post_calculation_gpw             1  3.0    0.000    0.000    0.058    0.058
 abc_contract                     10780  9.0    0.022    0.058    0.022    0.058
 write_available_results              1  4.0    0.000    0.000    0.058    0.058
 write_mo_free_results                1  5.0    0.003    0.004    0.058    0.058
 calculate_rho0_atom                244  9.0    0.057    0.058    0.057    0.058
 create_fast_row_vec_access        8270  8.0    0.034    0.038    0.053    0.058
 create_fast_col_vec_access        8270  8.0    0.034    0.038    0.052    0.057
 dbt_distribution_new_expert         76 10.1    0.001    0.002    0.048    0.054
 pw_scale                           241  9.5    0.041    0.053    0.041    0.053
 dbm_reserve_blocks                  66 14.0    0.048    0.053    0.048    0.053
 cp_fm_create                       325  7.8    0.039    0.053    0.039    0.053
 mp_sum_im                        10883 13.0    0.044    0.051    0.044    0.051
 multiply_cannon_multrec           2380 11.1    0.034    0.050    0.035    0.051
 array2fm_buffer_send                 4  8.0    0.042    0.046    0.042    0.046
 mixing_init                          1  5.0    0.041    0.044    0.045    0.045
 ao_to_mo_and_store_B_mult_gw_1       5  7.0    0.000    0.000    0.031    0.045
 mp_alltoall_i                       39 13.9    0.031    0.045    0.031    0.045
 allocate_matrices_gw                 1  7.0    0.000    0.000    0.026    0.044
 get_vec_sigma_x                      1  8.0    0.000    0.000    0.024    0.042
 dbcsr_sym_matrix_vector_mult_l    4135  8.0    0.017    0.030    0.030    0.041
 truncate_BSE_matrices                1  8.0    0.000    0.000    0.022    0.041
 dbt_tas_reserve_blocks_index        58 12.9    0.001    0.001    0.034    0.040
 mp_comm_split_direct                48 14.5    0.026    0.039    0.026    0.039
 dbcsr_work_create                 7367 10.4    0.004    0.024    0.006    0.036
 self_consistency_check              60  5.0    0.000    0.000    0.022    0.036
 cp_sm_mix                           60  6.0    0.000    0.001    0.021    0.036
 make_images_data                   210 11.1    0.003    0.003    0.027    0.036
 get_multipoles_mo                    1 10.0    0.000    0.000    0.032    0.036
 mp_max_d                            62  6.9    0.021    0.036    0.021    0.036
 multiply_cannon_metrocomm3        2380 11.1    0.004    0.004    0.019    0.036
 mp_maxloc_dv                      1533  1.0    0.033    0.035    0.033    0.035
 dbt_tas_distribution_new            94 11.8    0.025    0.026    0.035    0.035
 pw_grid_distribute                   4  8.0    0.010    0.012    0.021    0.035
 dbt_reserve_blocks_index            36 10.8    0.001    0.001    0.030    0.035
 array2fm_waitall                     4  8.0    0.000    0.000    0.006    0.035
 dbcsr_work_destroy_all            7367 11.4    0.004    0.025    0.005    0.035
 dbcsr_scale_anytype               6249  9.0    0.012    0.013    0.031    0.034
 fm_general_add_bse_6_buffer_to       1 10.0    0.020    0.034    0.020    0.034
 mp_irecv_dv                      19990 12.0    0.022    0.034    0.022    0.034
 Q_trace_and_add_unit_matrix        100  8.0    0.001    0.001    0.021    0.033
 dbt_split_copyback                   4 10.0    0.022    0.025    0.029    0.033
 dbt_reserve_blocks_index_array      28 10.6    0.000    0.000    0.027    0.032
 write_mo_set_to_restart             60  5.0    0.001    0.007    0.013    0.032
 ao_to_mo_and_store_B_E_Ex_gw_1       5  7.0    0.013    0.015    0.028    0.032
 mp2_main_free_hfx                    1  4.0    0.015    0.032    0.015    0.032
 write_mo_set_low                     3  6.0    0.000    0.000    0.012    0.031
 cp_fm_write_unformatted              3  7.0    0.010    0.023    0.012    0.031
 fm_general_add_bse_6_buffer_to       1 10.0    0.015    0.030    0.015    0.030
 get_2c_integrals                     1  6.0    0.000    0.000    0.029    0.030
 dbcsr_data_release               97083  9.9    0.017    0.030    0.017    0.030
 mp_cart_rank                    102720 11.1    0.024    0.029    0.024    0.029
 ao_to_mo_and_store_B_mult_bse_       5  7.0    0.000    0.000    0.027    0.029
 cube_transpose_2                   122 11.0    0.002    0.003    0.026    0.029
 fm_general_add_bse_3_alloc_buf       5 11.2    0.018    0.028    0.018    0.028
 make_images_sizes                  210 11.1    0.000    0.000    0.023    0.028
 mp_alltoall_i44                    210 12.1    0.023    0.028    0.023    0.028
 dbt_create_new                      40  9.5    0.001    0.001    0.027    0.027
 print_transition_amplitudes          1 10.0    0.000    0.000    0.026    0.026
 print_transition_amplitudes_co      50 11.0    0.000    0.001    0.026    0.026
 filter_eigvec_contrib               50 12.0    0.016    0.016    0.026    0.026
 sort_shells                          4  9.0    0.024    0.026    0.024    0.026
 hirshfeld_integration                1  6.0    0.001    0.005    0.025    0.026
 mp_bcast_iv_src                    304  7.0    0.011    0.024    0.011    0.024
 multiply_cannon_metrocomm1        2380 11.1    0.003    0.003    0.013    0.024
 dbcsr_crop_matrix                  300 10.0    0.002    0.002    0.023    0.024
 cube_transpose_1                   122 14.0    0.002    0.002    0.022    0.024
 dbcsr_iterator_seek              50232  9.7    0.011    0.024    0.011    0.024
 calc_fm_mat_S_rpa                  100  9.0    0.015    0.023    0.015    0.023
 calculate_hirshfeld_normalizat       1  6.0    0.001    0.006    0.022    0.023
 mp_cart_sub                        188  8.6    0.022    0.022    0.022    0.022
 ao_to_mo_and_store_B_E_Ex_bse_       5  7.0    0.009    0.010    0.021    0.022
 dbcsr_set                        16967  8.5    0.015    0.015    0.019    0.021
 -------------------------------------------------------------------------------

 The number of warnings for this run is : 1
 
 -------------------------------------------------------------------------------
  **** **** ******  **  PROGRAM ENDED AT                 2025-03-31 01:08:43.889
 ***** ** ***  *** **   PROGRAM RAN ON                              i01r08c04s01
 **    ****   ******    PROGRAM RAN BY                                   di38fab
 ***** **    ** ** **   PROGRAM PROCESS ID                                977905
  **** **  *******  **  PROGRAM STOPPED IN /hppfs/scratch/04/di38fab/07_MOL_non_
                                           aug/05_MOL_non_aug/05_MOL/aUKBqsEOTmq
                                           69kFe5R_nOg/5k_set_final_qzvp/BOBHUV/
                                           cc-pVTZ/GW+BSE
