 DBCSR| CPU Multiplication driver                                           XSMM (U)
 DBCSR| Multrec recursion limit                                              512 (U)
 DBCSR| Multiplication stack size                                           1000 (D)
 DBCSR| Maximum elements for images                                    UNLIMITED (U)
 DBCSR| Multiplicative factor virtual images                                   1 (U)
 DBCSR| Use multiplication densification                                       T (D)
 DBCSR| Multiplication size stacks                                             3 (U)
 DBCSR| Use memory pool for CPU allocation                                     F (U)
 DBCSR| Number of 3D layers                                               SINGLE (U)
 DBCSR| Use MPI memory allocation                                              F (U)
 DBCSR| Use RMA algorithm                                                      F (U)
 DBCSR| Use Communication thread                                               T (U)
 DBCSR| Communication thread load                                             60 (D)
 DBCSR| MPI: My process id                                                     0
 DBCSR| MPI: Number of processes                                              32
 DBCSR| OMP: Current number of threads                                         8
 DBCSR| OMP: Max number of threads                                             8
 DBCSR| Split modifier for TAS multiplication algorithm                  1.0E+00 (U)


  **** **** ******  **  PROGRAM STARTED AT               2025-06-23 20:31:41.363
 ***** ** ***  *** **   PROGRAM STARTED ON                 n2cn0603.ab2021.local
 **    ****   ******    PROGRAM STARTED BY                              metdyn02
 ***** **    ** ** **   PROGRAM PROCESS ID                                547237
  **** **  *******  **  PROGRAM STARTED IN /scratch/hpc-prf-metdyn/metdyn02_Remi
                                           /10_MOL/05_MOL/aUKBqsEOTmq69kFe5R_nOg
                                           /5k_set_final_qzvp/WEBNAU/mini-SZV/TD
                                           DFT/1e-4

 CP2K| version string:                 CP2K version 2025.1 (Development Version)
 CP2K| source code revision number:                                  git:32ddf85
 CP2K| cp2kflags: omp libint fftw3 libxc libgrpp elpa parallel scalapack mpi_f08
 CP2K|             cosma xsmm plumed2 spglib libvori libbqb libvdwxc hdf5
 CP2K| is freely available from                            https://www.cp2k.org/
 CP2K| Program compiled at                         Mon May 19 11:32:37 CEST 2025
 CP2K| Program compiled on                                              n2login1
 CP2K| Program compiled for                                                local
 CP2K| Data directory path    /opt/software/pc2/EB-SW/software/CP2K/2024.1-foss-
 CP2K| Input file name                                                    GW.inp

 GLOBAL| Force Environment number                                              1
 GLOBAL| Basis set file name            /scratch/hpc-prf-metdyn/metdyn02_Remi/BA
 GLOBAL| Potential file name            /pc2/groups/hpc-prf-metdyn/metdyn02_Remi
 GLOBAL| MM Potential file name                                     MM_POTENTIAL
 GLOBAL| Coordinate file name                                      __STD_INPUT__
 GLOBAL| Method name                                                        CP2K
 GLOBAL| Project name                                                       MoS2
 GLOBAL| Run type                                                         ENERGY
 GLOBAL| FFT library                                                       FFTW3
 GLOBAL| Diagonalization library                                            ELPA
 GLOBAL| Cholesky decomposition library                                ScaLAPACK
 GLOBAL| DGEMM library                                                      BLAS
 GLOBAL| Minimum number of eigenvectors for ELPA usage                        16
 GLOBAL| Orthonormality check for eigenvectors                          DISABLED
 GLOBAL| Matrix multiplication library                                     COSMA
 GLOBAL| All-to-all communication in single precision                          F
 GLOBAL| FFTs using library dependent lengths                                  F
 GLOBAL| Grid backend                                                       AUTO
 GLOBAL| Global print level                                               MEDIUM
 GLOBAL| MPI I/O enabled                                                       T
 GLOBAL| Total number of message passing processes                            32
 GLOBAL| Number of threads for this process                                    8
 GLOBAL| This output is from process                                           0
 GLOBAL| OpenMP stack size per thread (OMP_STACKSIZE)                    default
 GLOBAL| CPU model name                          AMD EPYC 7763 64-Core Processor
 GLOBAL| CPUID                                                              1002

 MEMORY| system memory details [Kb]
 MEMORY|                        rank 0           min           max       average
 MEMORY| MemTotal            263897600     263897560     263897612     263897593
 MEMORY| MemFree             251678108     249064016     252149616     251249550
 MEMORY| Buffers                125076         25584        126184         91598
 MEMORY| Cached                7112452       6774868       9875204       7449061
 MEMORY| Slab                  1565632       1526624       2267968       1731968
 MEMORY| SReclaimable           415044        314220       1009656        528419
 MEMORY| MemLikelyFree       259330680     259237988     259383756     259318629


 *** Fundamental physical constants (SI units) ***

 *** Literature: B. J. Mohr and B. N. Taylor,
 ***             CODATA recommended values of the fundamental physical
 ***             constants: 2006, Web Version 5.1
 ***             http://physics.nist.gov/constants

 Speed of light in vacuum [m/s]                             2.99792458000000E+08
 Magnetic constant or permeability of vacuum [N/A**2]       1.25663706143592E-06
 Electric constant or permittivity of vacuum [F/m]          8.85418781762039E-12
 Planck constant (h) [J*s]                                  6.62606896000000E-34
 Planck constant (h-bar) [J*s]                              1.05457162825177E-34
 Elementary charge [C]                                      1.60217648700000E-19
 Electron mass [kg]                                         9.10938215000000E-31
 Electron g factor [ ]                                     -2.00231930436220E+00
 Proton mass [kg]                                           1.67262163700000E-27
 Fine-structure constant                                    7.29735253760000E-03
 Rydberg constant [1/m]                                     1.09737315685270E+07
 Avogadro constant [1/mol]                                  6.02214179000000E+23
 Boltzmann constant [J/K]                                   1.38065040000000E-23
 Atomic mass unit [kg]                                      1.66053878200000E-27
 Bohr radius [m]                                            5.29177208590000E-11

 *** Conversion factors ***

 [u] -> [a.u.]                                              1.82288848426455E+03
 [Angstrom] -> [Bohr] = [a.u.]                              1.88972613288564E+00
 [a.u.] = [Bohr] -> [Angstrom]                              5.29177208590000E-01
 [a.u.] -> [s]                                              2.41888432650478E-17
 [a.u.] -> [fs]                                             2.41888432650478E-02
 [a.u.] -> [J]                                              4.35974393937059E-18
 [a.u.] -> [N]                                              8.23872205491840E-08
 [a.u.] -> [K]                                              3.15774647902944E+05
 [a.u.] -> [kJ/mol]                                         2.62549961709828E+03
 [a.u.] -> [kcal/mol]                                       6.27509468713739E+02
 [a.u.] -> [Pa]                                             2.94210107994716E+13
 [a.u.] -> [bar]                                            2.94210107994716E+08
 [a.u.] -> [atm]                                            2.90362800883016E+08
 [a.u.] -> [eV]                                             2.72113838565563E+01
 [a.u.] -> [Hz]                                             6.57968392072181E+15
 [a.u.] -> [1/cm] (wave numbers)                            2.19474631370540E+05
 [a.u./Bohr**2] -> [1/cm]                                   5.14048714338585E+03
 

 CELL_TOP| Volume [angstrom^3]:                                     27000.000000
 CELL_TOP| Vector a [angstrom    30.000     0.000     0.000   |a| =    30.000000
 CELL_TOP| Vector b [angstrom     0.000    30.000     0.000   |b| =    30.000000
 CELL_TOP| Vector c [angstrom     0.000     0.000    30.000   |c| =    30.000000
 CELL_TOP| Angle (b,c), alpha [degree]:                                90.000000
 CELL_TOP| Angle (a,c), beta  [degree]:                                90.000000
 CELL_TOP| Angle (a,b), gamma [degree]:                                90.000000
 CELL_TOP| Numerically orthorhombic:                                         YES
 CELL_TOP| Periodicity                                                      NONE

 GENERATE|  Preliminary Number of Bonds generated:                             0
 GENERATE|  Achieved consistency in connectivity generation.

 CELL| Volume [angstrom^3]:                                         27000.000000
 CELL| Vector a [angstrom]:      30.000     0.000     0.000   |a| =    30.000000
 CELL| Vector b [angstrom]:       0.000    30.000     0.000   |b| =    30.000000
 CELL| Vector c [angstrom]:       0.000     0.000    30.000   |c| =    30.000000
 CELL| Angle (b,c), alpha [degree]:                                    90.000000
 CELL| Angle (a,c), beta  [degree]:                                    90.000000
 CELL| Angle (a,b), gamma [degree]:                                    90.000000
 CELL| Numerically orthorhombic:                                             YES
 CELL| Periodicity                                                          NONE

 CELL_REF| Volume [angstrom^3]:                                     27000.000000
 CELL_REF| Vector a [angstrom    30.000     0.000     0.000   |a| =    30.000000
 CELL_REF| Vector b [angstrom     0.000    30.000     0.000   |b| =    30.000000
 CELL_REF| Vector c [angstrom     0.000     0.000    30.000   |c| =    30.000000
 CELL_REF| Angle (b,c), alpha [degree]:                                90.000000
 CELL_REF| Angle (a,c), beta  [degree]:                                90.000000
 CELL_REF| Angle (a,b), gamma [degree]:                                90.000000
 CELL_REF| Numerically orthorhombic:                                         YES
 CELL_REF| Periodicity                                                      NONE

 *******************************************************************************
 *******************************************************************************
 **                                                                           **
 **     #####                         ##              ##                      **
 **    ##   ##            ##          ##              ##                      **
 **   ##     ##                       ##            ######                    **
 **   ##     ##  ##   ##  ##   #####  ##  ##   ####   ##    #####    #####    **
 **   ##     ##  ##   ##  ##  ##      ## ##   ##      ##   ##   ##  ##   ##   **
 **   ##  ## ##  ##   ##  ##  ##      ####     ###    ##   ######   ######    **
 **    ##  ###   ##   ##  ##  ##      ## ##      ##   ##   ##       ##        **
 **     #######   #####   ##   #####  ##  ##  ####    ##    #####   ##        **
 **           ##                                                    ##        **
 **                                                                           **
 **                                                ... make the atoms dance   **
 **                                                                           **
 **            Copyright (C) by CP2K developers group (2000-2025)             **
 **                      J. Chem. Phys. 152, 194103 (2020)                    **
 **                                                                           **
 *******************************************************************************

 DFT| Spin restricted Kohn-Sham (RKS) calculation                            RKS
 DFT| Multiplicity                                                             1
 DFT| Number of spin states                                                    1
 DFT| Charge                                                                   0
 DFT| Self-interaction correction (SIC)                                       NO
 DFT| Cutoffs: density                                              1.000000E-10
 DFT|          gradient                                             1.000000E-10
 DFT|          tau                                                  1.000000E-10
 DFT|          cutoff_smoothing_range                               0.000000E+00
 DFT| XC density smoothing                                                  NONE
 DFT| XC derivatives                                                          PW

 FUNCTIONAL| PBE:
 FUNCTIONAL| J.P.Perdew, K.Burke, M.Ernzerhof, Phys. Rev. Letter, vol. 77, n 18,
 FUNCTIONAL|  pp. 3865-3868, (1996)sx=0.750sc=1.000{spin unpolarized}           


 QS| Method:                                                                GAPW
 QS| Density plane wave grid type                        NON-SPHERICAL FULLSPACE
 QS| Number of grid levels:                                                    4
 QS| Density cutoff [a.u.]:                                                250.0
 QS| Multi grid cutoff [a.u.]: 1) grid level                               250.0
 QS|                           2) grid level                                83.3
 QS|                           3) grid level                                27.8
 QS|                           4) grid level                                 9.3
 QS| Grid level progression factor:                                          3.0
 QS| Relative density cutoff [a.u.]:                                        50.0
 QS| Interaction thresholds: eps_pgf_orb:                                1.0E-12
 QS|                         eps_filter_matrix:                          0.0E+00
 QS|                         eps_core_charge:                            1.0E-14
 QS|                         eps_rho_gspace:                             1.0E-12
 QS|                         eps_rho_rspace:                             1.0E-12
 QS|                         eps_gvg_rspace:                             1.0E-06
 QS|                         eps_ppl:                                    1.0E-02
 QS|                         eps_ppnl:                                   1.0E-08
 QS| GAPW|      One center basis from orbital basis primitives
 QS| GAPW|                   eps_fit:                                    1.0E-04
 QS| GAPW|                   eps_iso:                                    1.0E-12
 QS| GAPW|                   eps_svd:                                    1.0E-08
 QS| GAPW|                   eps_cpc:                                    1.0E-12
 QS| GAPW|   atom-r-grid: quadrature:                                     GC_LOG
 QS| GAPW|      atom-s-grid:  max l :                                          2
 QS| GAPW|      max_l_rho0 :                                                   2


 ATOMIC KIND INFORMATION

  1. Atomic kind: F                                     Number of atoms:       3

     Orbital Basis Set                                    aug-SZV-MOLOPT-ae-mini

       Number of orbital shell sets:                                           2
       Number of orbital shells:                                               5
       Number of primitive Cartesian functions:                                8
       Number of Cartesian basis functions:                                    9
       Number of spherical basis functions:                                    9
       Norm type:                                                              2

       Normalised Cartesian orbitals:

                        Set   Shell   Orbital            Exponent    Coefficient

                          1       1    1s                6.464803      -0.288857
                                                         1.502281       0.386371
                                                         0.488588       0.291599
                                                         0.250000       0.000000
                                                         0.120000       0.000000

                          1       2    2s                6.464803       0.000000
                                                         1.502281      -0.205683
                                                         0.488588       0.226370
                                                         0.250000      -0.681175
                                                         0.120000       0.370388

                          1       3    2px               6.464803       2.291000
                                                         1.502281       1.440645
                                                         0.488588       0.228222
                                                         0.250000       0.000000
                                                         0.120000       0.000000
                          1       3    2py               6.464803       2.291000
                                                         1.502281       1.440645
                                                         0.488588       0.228222
                                                         0.250000       0.000000
                                                         0.120000       0.000000
                          1       3    2pz               6.464803       2.291000
                                                         1.502281       1.440645
                                                         0.488588       0.228222
                                                         0.250000       0.000000
                                                         0.120000       0.000000

                          1       4    3px               6.464803       0.000000
                                                         1.502281      -0.282020
                                                         0.488588       0.009318
                                                         0.250000      -0.007900
                                                         0.120000       0.104145
                          1       4    3py               6.464803       0.000000
                                                         1.502281      -0.282020
                                                         0.488588       0.009318
                                                         0.250000      -0.007900
                                                         0.120000       0.104145
                          1       4    3pz               6.464803       0.000000
                                                         1.502281      -0.282020
                                                         0.488588       0.009318
                                                         0.250000      -0.007900
                                                         0.120000       0.104145

                          2       1    1s              166.679130       5.102329
                                                        30.360812       4.934748
                                                         8.216821       1.537947

     RI Auxiliary Basis Set             RI_aug-SZV-MOLOPT-ae-mini_N_RI_023_s_p_d

       Number of orbital shell sets:                                           9
       Number of orbital shells:                                               9
       Number of primitive Cartesian functions:                                9
       Number of Cartesian basis functions:                                   25
       Number of spherical basis functions:                                   23
       Norm type:                                                              2

       Normalised Cartesian orbitals:

                        Set   Shell   Orbital            Exponent    Coefficient

                          1       1    1s                0.276469       0.271735

                          2       1    5px               0.276567       0.285884
                          2       1    5py               0.276567       0.285884
                          2       1    5pz               0.276567       0.285884

                          3       1    8dx2              0.299289       0.199328
                          3       1    8dxy              0.299289       0.345247
                          3       1    8dxz              0.299289       0.345247
                          3       1    8dy2              0.299289       0.199328
                          3       1    8dyz              0.299289       0.345247
                          3       1    8dz2              0.299289       0.199328

                          4       1    6px               0.965199       1.363676
                          4       1    6py               0.965199       1.363676
                          4       1    6pz               0.965199       1.363676

                          5       1    2s                1.128758       0.780478

                          6       1    7px               2.908370       5.413800
                          6       1    7py               2.908370       5.413800
                          6       1    7pz               2.908370       5.413800

                          7       1    3s                3.118719       1.672601

                          8       1    9dx2              3.694356      16.203252
                          8       1    9dxy              3.694356      28.064856
                          8       1    9dxz              3.694356      28.064856
                          8       1    9dy2              3.694356      16.203252
                          8       1    9dyz              3.694356      28.064856
                          8       1    9dz2              3.694356      16.203252

                          9       1    4s               14.099938       5.185886

       Atomic covalent radius [Angstrom]:                                  0.720

       Atomic van der Waals radius [Angstrom]:                             1.470

     The atoms of this atomic kind are PAW atoms (GAPW):
       Hard Gaussian function radius:                                      1.512
       Rho0 radius:                                                        1.512
       Maximum GTO radius used for PAW projector construction:            24.566

     GAPW Soft Basis Set                             aug-SZV-MOLOPT-ae-mini_soft

       Number of orbital shell sets:                                           2
       Number of orbital shells:                                               5
       Number of primitive Cartesian functions:                                4
       Number of Cartesian basis functions:                                    9
       Number of spherical basis functions:                                    9
       Norm type:                                                              2

       Normalised Cartesian orbitals:

                        Set   Shell   Orbital            Exponent    Coefficient

                          1       1    1s                1.502281       0.386371
                                                         0.488588       0.291599
                                                         0.250000       0.000000
                                                         0.120000       0.000000

                          1       2    2s                1.502281      -0.205683
                                                         0.488588       0.226370
                                                         0.250000      -0.681175
                                                         0.120000       0.370388

                          1       3    2px               1.502281       1.440645
                                                         0.488588       0.228222
                                                         0.250000       0.000000
                                                         0.120000       0.000000
                          1       3    2py               1.502281       1.440645
                                                         0.488588       0.228222
                                                         0.250000       0.000000
                                                         0.120000       0.000000
                          1       3    2pz               1.502281       1.440645
                                                         0.488588       0.228222
                                                         0.250000       0.000000
                                                         0.120000       0.000000

                          1       4    3px               1.502281      -0.282020
                                                         0.488588       0.009318
                                                         0.250000      -0.007900
                                                         0.120000       0.104145
                          1       4    3py               1.502281      -0.282020
                                                         0.488588       0.009318
                                                         0.250000      -0.007900
                                                         0.120000       0.104145
                          1       4    3pz               1.502281      -0.282020
                                                         0.488588       0.009318
                                                         0.250000      -0.007900
                                                         0.120000       0.104145

                          2       1    1s         

     AE Potential information for                                            ALL

       Description:                                       All-electron potential
                                          Krack, Parrinello, PCCP 2, 2105 (2000)

       Gaussian exponent of the core charge distribution:              10.470541
       Electronic configuration (s p d ...):                           4   5   0

  2. Atomic kind: O                                     Number of atoms:       2

     Orbital Basis Set                                    aug-SZV-MOLOPT-ae-mini

       Number of orbital shell sets:                                           2
       Number of orbital shells:                                               5
       Number of primitive Cartesian functions:                                7
       Number of Cartesian basis functions:                                    9
       Number of spherical basis functions:                                    9
       Norm type:                                                              2

       Normalised Cartesian orbitals:

                        Set   Shell   Orbital            Exponent    Coefficient

                          1       1    1s                0.162491       0.000000
                                                         0.380388       0.241685
                                                         1.169596       0.320234
                                                         5.033151      -0.239413

                          1       2    2s                0.162491       0.289618
                                                         0.380388      -0.257800
                                                         1.169596      -0.000000
                                                         5.033151      -0.000284

                          1       3    2px               0.162491       0.000000
                                                         0.380388       0.166902
                                                         1.169596       1.053568
                                                         5.033151       1.675450
                          1       3    2py               0.162491       0.000000
                                                         0.380388       0.166902
                                                         1.169596       1.053568
                                                         5.033151       1.675450
                          1       3    2pz               0.162491       0.000000
                                                         0.380388       0.166902
                                                         1.169596       1.053568
                                                         5.033151       1.675450

                          1       4    3px               0.162491       0.166510
                                                         0.380388      -0.081234
                                                         1.169596      -0.994066
                                                         5.033151       0.014231
                          1       4    3py               0.162491       0.166510
                                                         0.380388      -0.081234
                                                         1.169596      -0.994066
                                                         5.033151       0.014231
                          1       4    3pz               0.162491       0.166510
                                                         0.380388      -0.081234
                                                         1.169596      -0.994066
                                                         5.033151       0.014231

                          2       1    1s              130.709321       4.251922
                                                        23.808866       4.112298
                                                         6.443608       1.281622

     RI Auxiliary Basis Set             RI_aug-SZV-MOLOPT-ae-mini_N_RI_028_s_p_d

       Number of orbital shell sets:                                          10
       Number of orbital shells:                                              10
       Number of primitive Cartesian functions:                               10
       Number of Cartesian basis functions:                                   31
       Number of spherical basis functions:                                   28
       Norm type:                                                              2

       Normalised Cartesian orbitals:

                        Set   Shell   Orbital            Exponent    Coefficient

                          1       1    1s                0.357489       0.329502

                          2       1    5px               0.409748       0.467289
                          2       1    5py               0.409748       0.467289
                          2       1    5pz               0.409748       0.467289

                          3       1    8dx2              0.443879       0.397304
                          3       1    8dxy              0.443879       0.688150
                          3       1    8dxz              0.443879       0.688150
                          3       1    8dy2              0.443879       0.397304
                          3       1    8dyz              0.443879       0.688150
                          3       1    8dz2              0.443879       0.397304

                          4       1    2s                1.054753       0.741777

                          5       1    6px               1.767021       2.903971
                          5       1    6py               1.767021       2.903971
                          5       1    6pz               1.767021       2.903971

                          6       1    9dx2              2.138835       6.226152
                          6       1    9dxy              2.138835      10.784012
                          6       1    9dxz              2.138835      10.784012
                          6       1    9dy2              2.138835       6.226152
                          6       1    9dyz              2.138835      10.784012
                          6       1    9dz2              2.138835       6.226152

                          7       1    3s                3.026195       1.635245

                          8       1   10dx2              8.012449      62.805651
                          8       1   10dxy              8.012449     108.782579
                          8       1   10dxz              8.012449     108.782579
                          8       1   10dy2              8.012449      62.805651
                          8       1   10dyz              8.012449     108.782579
                          8       1   10dz2              8.012449      62.805651

                          9       1    4s                8.361610       3.504512

                         10       1    7px               8.422062      20.450934
                         10       1    7py               8.422062      20.450934
                         10       1    7pz               8.422062      20.450934

       Atomic covalent radius [Angstrom]:                                  0.730

       Atomic van der Waals radius [Angstrom]:                             1.520

     The atoms of this atomic kind are PAW atoms (GAPW):
       Hard Gaussian function radius:                                      1.512
       Rho0 radius:                                                        1.512
       Maximum GTO radius used for PAW projector construction:            24.566

     GAPW Soft Basis Set                             aug-SZV-MOLOPT-ae-mini_soft

       Number of orbital shell sets:                                           2
       Number of orbital shells:                                               5
       Number of primitive Cartesian functions:                                3
       Number of Cartesian basis functions:                                    9
       Number of spherical basis functions:                                    9
       Norm type:                                                              2

       Normalised Cartesian orbitals:

                        Set   Shell   Orbital            Exponent    Coefficient

                          1       1    1s                0.162491       0.000000
                                                         0.380388       0.241685
                                                         1.169596       0.320234

                          1       2    2s                0.162491       0.289618
                                                         0.380388      -0.257800
                                                         1.169596      -0.000000

                          1       3    2px               0.162491       0.000000
                                                         0.380388       0.166902
                                                         1.169596       1.053568
                          1       3    2py               0.162491       0.000000
                                                         0.380388       0.166902
                                                         1.169596       1.053568
                          1       3    2pz               0.162491       0.000000
                                                         0.380388       0.166902
                                                         1.169596       1.053568

                          1       4    3px               0.162491       0.166510
                                                         0.380388      -0.081234
                                                         1.169596      -0.994066
                          1       4    3py               0.162491       0.166510
                                                         0.380388      -0.081234
                                                         1.169596      -0.994066
                          1       4    3pz               0.162491       0.166510
                                                         0.380388      -0.081234
                                                         1.169596      -0.994066

                          2       1    1s         

     AE Potential information for                                            ALL

       Description:                                       All-electron potential
                                          Krack, Parrinello, PCCP 2, 2105 (2000)

       Gaussian exponent of the core charge distribution:               8.154466
       Electronic configuration (s p d ...):                           4   4   0

  3. Atomic kind: C                                     Number of atoms:       7

     Orbital Basis Set                                    aug-SZV-MOLOPT-ae-mini

       Number of orbital shell sets:                                           2
       Number of orbital shells:                                               5
       Number of primitive Cartesian functions:                                7
       Number of Cartesian basis functions:                                    9
       Number of spherical basis functions:                                    9
       Norm type:                                                              2

       Normalised Cartesian orbitals:

                        Set   Shell   Orbital            Exponent    Coefficient

                          1       1    2s                0.114558       0.000000
                                                         0.222289       0.161536
                                                         0.683483       0.214036
                                                         2.941249      -0.160017

                          1       2    3s                0.114558       0.000272
                                                         0.222289       0.256636
                                                         0.683483      -0.079244
                                                         2.941249       0.000032

                          1       3    3px               0.114558       0.000000
                                                         0.222289       0.085276
                                                         0.683483       0.538304
                                                         2.941249       0.856044
                          1       3    3py               0.114558       0.000000
                                                         0.222289       0.085276
                                                         0.683483       0.538304
                                                         2.941249       0.856044
                          1       3    3pz               0.114558       0.000000
                                                         0.222289       0.085276
                                                         0.683483       0.538304
                                                         2.941249       0.856044

                          1       4    4px               0.114558      -0.035043
                                                         0.222289      -0.159067
                                                         0.683483       0.106927
                                                         2.941249      -0.036832
                          1       4    4py               0.114558      -0.035043
                                                         0.222289      -0.159067
                                                         0.683483       0.106927
                                                         2.941249      -0.036832
                          1       4    4pz               0.114558      -0.035043
                                                         0.222289      -0.159067
                                                         0.683483       0.106927
                                                         2.941249      -0.036832

                          2       1    1s               71.616837       2.707801
                                                        13.045096       2.618883
                                                         3.530512       0.816191

     RI Auxiliary Basis Set             RI_aug-SZV-MOLOPT-ae-mini_N_RI_022_s_p_d

       Number of orbital shell sets:                                          10
       Number of orbital shells:                                              10
       Number of primitive Cartesian functions:                               10
       Number of Cartesian basis functions:                                   24
       Number of spherical basis functions:                                   22
       Norm type:                                                              2

       Normalised Cartesian orbitals:

                        Set   Shell   Orbital            Exponent    Coefficient

                          1       1    9dx2              0.319489       0.223463
                          1       1    9dxy              0.319489       0.387050
                          1       1    9dxz              0.319489       0.387050
                          1       1    9dy2              0.319489       0.223463
                          1       1    9dyz              0.319489       0.387050
                          1       1    9dz2              0.319489       0.223463

                          2       1    1s                0.357304       0.329373

                          3       1    7px               0.413040       0.471987
                          3       1    7py               0.413040       0.471987
                          3       1    7pz               0.413040       0.471987

                          4       1    2s                0.585920       0.477297

                          5       1    3s                0.962549       0.692592

                          6       1    8px               1.175289       1.744299
                          6       1    8py               1.175289       1.744299
                          6       1    8pz               1.175289       1.744299

                          7       1    4s                1.583093       1.005866

                          8       1   10dx2              1.968757       5.385741
                          8       1   10dxy              1.968757       9.328377
                          8       1   10dxz              1.968757       9.328377
                          8       1   10dy2              1.968757       5.385741
                          8       1   10dyz              1.968757       9.328377
                          8       1   10dz2              1.968757       5.385741

                          9       1    5s                2.602827       1.460475

                         10       1    6s                4.278785       2.120315

       Atomic covalent radius [Angstrom]:                                  0.770

       Atomic van der Waals radius [Angstrom]:                             1.700

     The atoms of this atomic kind are PAW atoms (GAPW):
       Hard Gaussian function radius:                                      1.512
       Rho0 radius:                                                        1.512
       Maximum GTO radius used for PAW projector construction:            24.566

     GAPW Soft Basis Set                             aug-SZV-MOLOPT-ae-mini_soft

       Number of orbital shell sets:                                           2
       Number of orbital shells:                                               5
       Number of primitive Cartesian functions:                                5
       Number of Cartesian basis functions:                                    9
       Number of spherical basis functions:                                    9
       Norm type:                                                              2

       Normalised Cartesian orbitals:

                        Set   Shell   Orbital            Exponent    Coefficient

                          1       1    2s                0.114558       0.000000
                                                         0.222289       0.161536
                                                         0.683483       0.214036
                                                         2.941249      -0.160017

                          1       2    3s                0.114558       0.000272
                                                         0.222289       0.256636
                                                         0.683483      -0.079244
                                                         2.941249       0.000032

                          1       3    3px               0.114558       0.000000
                                                         0.222289       0.085276
                                                         0.683483       0.538304
                                                         2.941249       0.856044
                          1       3    3py               0.114558       0.000000
                                                         0.222289       0.085276
                                                         0.683483       0.538304
                                                         2.941249       0.856044
                          1       3    3pz               0.114558       0.000000
                                                         0.222289       0.085276
                                                         0.683483       0.538304
                                                         2.941249       0.856044

                          1       4    4px               0.114558      -0.035043
                                                         0.222289      -0.159067
                                                         0.683483       0.106927
                                                         2.941249      -0.036832
                          1       4    4py               0.114558      -0.035043
                                                         0.222289      -0.159067
                                                         0.683483       0.106927
                                                         2.941249      -0.036832
                          1       4    4pz               0.114558      -0.035043
                                                         0.222289      -0.159067
                                                         0.683483       0.106927
                                                         2.941249      -0.036832

                          2       1    1s                3.530512       0.816191

     AE Potential information for                                            ALL

       Description:                                       All-electron potential
                                          Krack, Parrinello, PCCP 2, 2105 (2000)

       Gaussian exponent of the core charge distribution:               4.109048
       Electronic configuration (s p d ...):                           4   2   0

  4. Atomic kind: H                                     Number of atoms:       3

     Orbital Basis Set                                    aug-SZV-MOLOPT-ae-mini

       Number of orbital shell sets:                                           1
       Number of orbital shells:                                               4
       Number of primitive Cartesian functions:                                7
       Number of Cartesian basis functions:                                    6
       Number of spherical basis functions:                                    6
       Norm type:                                                              2

       Normalised Cartesian orbitals:

                        Set   Shell   Orbital            Exponent    Coefficient

                          1       1    1s                0.065428       0.000000
                                                         0.100112       0.016532
                                                         0.243077       0.102760
                                                         0.625955       0.185857
                                                         1.822143       0.188385
                                                         6.513144       0.143430
                                                        35.523221       0.095030

                          1       2    2s                0.065428       0.083549
                                                         0.100112       0.009605
                                                         0.243077       0.002524
                                                         0.625955       0.013457
                                                         1.822143       0.000000
                                                         6.513144       0.000000
                                                        35.523221       0.000000

                          1       3    3s                0.065428       0.037407
                                                         0.100112      -0.169070
                                                         0.243077      -0.018899
                                                         0.625955       0.012806
                                                         1.822143       0.000000
                                                         6.513144       0.000000
                                                        35.523221       0.000000

                          1       4    2px               0.065428       0.059908
                                                         0.100112      -0.023770
                                                         0.243077       0.000032
                                                         0.625955       0.017779
                                                         1.822143       0.000000
                                                         6.513144       0.000000
                                                        35.523221       0.000000
                          1       4    2py               0.065428       0.059908
                                                         0.100112      -0.023770
                                                         0.243077       0.000032
                                                         0.625955       0.017779
                                                         1.822143       0.000000
                                                         6.513144       0.000000
                                                        35.523221       0.000000
                          1       4    2pz               0.065428       0.059908
                                                         0.100112      -0.023770
                                                         0.243077       0.000032
                                                         0.625955       0.017779
                                                         1.822143       0.000000
                                                         6.513144       0.000000
                                                        35.523221       0.000000

     RI Auxiliary Basis Set             RI_aug-SZV-MOLOPT-ae_N_RI_007_s_p_d_f_g_

       Number of orbital shell sets:                                           5
       Number of orbital shells:                                               5
       Number of primitive Cartesian functions:                                5
       Number of Cartesian basis functions:                                    7
       Number of spherical basis functions:                                    7
       Norm type:                                                              2

       Normalised Cartesian orbitals:

                        Set   Shell   Orbital            Exponent    Coefficient

                          1       1    1s                0.148777       0.170731

                          2       1    5px               0.367452       0.407794
                          2       1    5py               0.367452       0.407794
                          2       1    5pz               0.367452       0.407794

                          3       1    2s                0.510503       0.430437

                          4       1    3s                1.106366       0.768837

                          5       1    4s                5.955292       2.716986

       Atomic covalent radius [Angstrom]:                                  0.320

       Atomic van der Waals radius [Angstrom]:                             1.090

     The atoms of this atomic kind are PAW atoms (GAPW):
       Hard Gaussian function radius:                                      1.200
       Rho0 radius:                                                        1.200
       Maximum GTO radius used for PAW projector construction:            24.566

     GAPW Soft Basis Set                             aug-SZV-MOLOPT-ae-mini_soft

       Number of orbital shell sets:                                           1
       Number of orbital shells:                                               4
       Number of primitive Cartesian functions:                                6
       Number of Cartesian basis functions:                                    6
       Number of spherical basis functions:                                    6
       Norm type:                                                              2

       Normalised Cartesian orbitals:

                        Set   Shell   Orbital            Exponent    Coefficient

                          1       1    1s                0.065428       0.000000
                                                         0.100112       0.016532
                                                         0.243077       0.102760
                                                         0.625955       0.185857
                                                         1.822143       0.188385
                                                         6.513144       0.000000

                          1       2    2s                0.065428       0.083549
                                                         0.100112       0.009605
                                                         0.243077       0.002524
                                                         0.625955       0.013457
                                                         1.822143       0.000000
                                                         6.513144       0.000000

                          1       3    3s                0.065428       0.037407
                                                         0.100112      -0.169070
                                                         0.243077      -0.018899
                                                         0.625955       0.012806
                                                         1.822143       0.000000
                                                         6.513144       0.000000

                          1       4    2px               0.065428       0.059908
                                                         0.100112      -0.023770
                                                         0.243077       0.000032
                                                         0.625955       0.017779
                                                         1.822143       0.000000
                                                         6.513144       0.000000
                          1       4    2py               0.065428       0.059908
                                                         0.100112      -0.023770
                                                         0.243077       0.000032
                                                         0.625955       0.017779
                                                         1.822143       0.000000
                                                         6.513144       0.000000
                          1       4    2pz               0.065428       0.059908
                                                         0.100112      -0.023770
                                                         0.243077       0.000032
                                                         0.625955       0.017779
                                                         1.822143       0.000000
                                                         6.513144       0.000000

     AE Potential information for                                            ALL

       Description:                                       All-electron potential
                                          Krack, Parrinello, PCCP 2, 2105 (2000)

       Gaussian exponent of the core charge distribution:              12.500000
       Electronic configuration (s p d ...):                           1   0   0


 MOLECULE KIND INFORMATION


 All atoms are their own molecule, skipping detailed information


 TOTAL NUMBERS AND MAXIMUM NUMBERS

  Total number of            - Atomic kinds:                                   4
                             - Atoms:                                         15
                             - Shell sets:                                    27
                             - Shells:                                        72
                             - Primitive Cartesian functions:                108
                             - Cartesian basis functions:                    126
                             - Spherical basis functions:                    126

  Maximum angular momentum of the orbital basis functions:                     1


 MODULE QUICKSTEP: ATOMIC COORDINATES IN ANGSTROM

   Atom Kind Element         X             Y             Z       Z(eff)     Mass
      1    1 F     9     14.113781     12.977510     14.125070   9.0000  18.9984
      2    2 O     8     12.918949     13.503170     16.403962   8.0000  15.9994
      3    3 C     6     14.898038     14.024771     14.406435   6.0000  12.0107
      4    4 H     1     12.315904     13.470015     17.172204   1.0000   1.0079
      5    2 O     8     13.648639     15.245834     17.641175   8.0000  15.9994
      6    3 C     6     14.754066     14.789613     15.574992   6.0000  12.0107
      7    3 C     6     13.740331     14.557640     16.642036   6.0000  12.0107
      8    1 F     9     16.011689     13.592451     12.358825   9.0000  18.9984
      9    1 F     9     17.684096     15.685819     12.780412   9.0000  18.9984
     10    3 C     6     15.887779     14.332606     13.468882   6.0000  12.0107
     11    3 C     6     16.741835     15.411537     13.696678   6.0000  12.0107
     12    3 C     6     16.622089     16.186594     14.845442   6.0000  12.0107
     13    3 C     6     15.634497     15.867957     15.766350   6.0000  12.0107
     14    4 H     1     17.301842     17.022490     14.997644   1.0000   1.0079
     15    4 H     1     15.511843     16.452305     16.676301   1.0000   1.0079



 SCF PARAMETERS         Density guess:                                    ATOMIC
                        --------------------------------------------------------
                        max_scf:                                             500
                        max_scf_history:                                       0
                        max_diis:                                              4
                        --------------------------------------------------------
                        eps_scf:                                        1.00E-06
                        eps_scf_history:                                0.00E+00
                        eps_diis:                                       1.00E-01
                        eps_eigval:                                     1.00E-05
                        --------------------------------------------------------
                        level_shift [a.u.]:                             0.000000
                        added MOs                                        82    0
                        --------------------------------------------------------
                        Mixing method:                            BROYDEN_MIXING
                                                charge density mixing in g-space
                        --------------------------------------------------------
                        No outer SCF

 PW_GRID| Information for grid number                                          1
 PW_GRID| Grid distributed over                                    32 processors
 PW_GRID| Real space group dimensions                                    32    1
 PW_GRID| the grid is blocked:                                                NO
 PW_GRID| Cutoff [a.u.]                                                    250.0
 PW_GRID| spherical cutoff:                                                   NO
 PW_GRID|   Bounds   1           -202     202                Points:         405
 PW_GRID|   Bounds   2           -202     202                Points:         405
 PW_GRID|   Bounds   3           -202     202                Points:         405
 PW_GRID| Volume element (a.u.^3)  0.2743E-02     Volume (a.u.^3)    182205.0337
 PW_GRID| Grid span                                                    FULLSPACE
 PW_GRID|   Distribution                         Average         Max         Min
 PW_GRID|   G-Vectors                          2075941.4     2076030     2075625
 PW_GRID|   G-Rays                                5125.8        5126        5125
 PW_GRID|   Real Space Points                  2075941.4     2132325     1968300

 PW_GRID| Information for grid number                                          2
 PW_GRID| Number of the reference grid                                         1
 PW_GRID| Grid distributed over                                    32 processors
 PW_GRID| Real space group dimensions                                    32    1
 PW_GRID| the grid is blocked:                                                NO
 PW_GRID| Cutoff [a.u.]                                                     83.3
 PW_GRID| spherical cutoff:                                                   NO
 PW_GRID|   Bounds   1           -120     119                Points:         240
 PW_GRID|   Bounds   2           -120     119                Points:         240
 PW_GRID|   Bounds   3           -120     119                Points:         240
 PW_GRID| Volume element (a.u.^3)  0.1318E-01     Volume (a.u.^3)    182205.0337
 PW_GRID| Grid span                                                    FULLSPACE
 PW_GRID|   Distribution                         Average         Max         Min
 PW_GRID|   G-Vectors                           432000.0      432480      431760
 PW_GRID|   G-Rays                                1800.0        1802        1799
 PW_GRID|   Real Space Points                   432000.0      460800      403200

 PW_GRID| Information for grid number                                          3
 PW_GRID| Number of the reference grid                                         1
 PW_GRID| Grid distributed over                                    32 processors
 PW_GRID| Real space group dimensions                                    32    1
 PW_GRID| the grid is blocked:                                                NO
 PW_GRID| Cutoff [a.u.]                                                     27.8
 PW_GRID| spherical cutoff:                                                   NO
 PW_GRID|   Bounds   1            -67      67                Points:         135
 PW_GRID|   Bounds   2            -67      67                Points:         135
 PW_GRID|   Bounds   3            -67      67                Points:         135
 PW_GRID| Volume element (a.u.^3)  0.7406E-01     Volume (a.u.^3)    182205.0337
 PW_GRID| Grid span                                                    FULLSPACE
 PW_GRID|   Distribution                         Average         Max         Min
 PW_GRID|   G-Vectors                            76886.7       77085       76680
 PW_GRID|   G-Rays                                 569.5         571         568
 PW_GRID|   Real Space Points                    76886.7       91125       72900

 PW_GRID| Information for grid number                                          4
 PW_GRID| Number of the reference grid                                         1
 PW_GRID| Grid distributed over                                    32 processors
 PW_GRID| Real space group dimensions                                    32    1
 PW_GRID| the grid is blocked:                                                NO
 PW_GRID| Cutoff [a.u.]                                                      9.3
 PW_GRID| spherical cutoff:                                                   NO
 PW_GRID|   Bounds   1            -40      39                Points:          80
 PW_GRID|   Bounds   2            -40      39                Points:          80
 PW_GRID|   Bounds   3            -40      39                Points:          80
 PW_GRID| Volume element (a.u.^3)  0.3559         Volume (a.u.^3)    182205.0337
 PW_GRID| Grid span                                                    FULLSPACE
 PW_GRID|   Distribution                         Average         Max         Min
 PW_GRID|   G-Vectors                            16000.0       16160       15920
 PW_GRID|   G-Rays                                 200.0         202         199
 PW_GRID|   Real Space Points                    16000.0       19200       12800

 POISSON| Solver                                                         WAVELET
 POISSON| Wavelet| Scaling function                                           40
 POISSON| Periodicity                                                       NONE

 RS_GRID| Information for grid number                                          1
 RS_GRID|   Bounds   1           -202     202                Points:         405
 RS_GRID|   Bounds   2           -202     202                Points:         405
 RS_GRID|   Bounds   3           -202     202                Points:         405
 RS_GRID| Real space distribution over                                  2 groups
 RS_GRID| Real space distribution along direction                              1
 RS_GRID| Border size                                                         33
 RS_GRID| Real space distribution over                                  4 groups
 RS_GRID| Real space distribution along direction                              2
 RS_GRID| Border size                                                         33
 RS_GRID| Real space distribution over                                  4 groups
 RS_GRID| Real space distribution along direction                              3
 RS_GRID| Border size                                                         33
 RS_GRID|   Distribution                         Average         Max         Min
 RS_GRID|   Planes                                 268.5         269         268
 RS_GRID|   Distribution                         Average         Max         Min
 RS_GRID|   Planes                                 167.2         168         167
 RS_GRID|   Distribution                         Average         Max         Min
 RS_GRID|   Planes                                 167.2         168         167

 RS_GRID| Information for grid number                                          2
 RS_GRID|   Bounds   1           -120     119                Points:         240
 RS_GRID|   Bounds   2           -120     119                Points:         240
 RS_GRID|   Bounds   3           -120     119                Points:         240
 RS_GRID| Real space distribution over                                  2 groups
 RS_GRID| Real space distribution along direction                              1
 RS_GRID| Border size                                                         34
 RS_GRID| Real space distribution over                                  4 groups
 RS_GRID| Real space distribution along direction                              2
 RS_GRID| Border size                                                         34
 RS_GRID| Real space distribution over                                  4 groups
 RS_GRID| Real space distribution along direction                              3
 RS_GRID| Border size                                                         34
 RS_GRID|   Distribution                         Average         Max         Min
 RS_GRID|   Planes                                 188.0         188         188
 RS_GRID|   Distribution                         Average         Max         Min
 RS_GRID|   Planes                                 128.0         128         128
 RS_GRID|   Distribution                         Average         Max         Min
 RS_GRID|   Planes                                 128.0         128         128

 RS_GRID| Information for grid number                                          3
 RS_GRID|   Bounds   1            -67      67                Points:         135
 RS_GRID|   Bounds   2            -67      67                Points:         135
 RS_GRID|   Bounds   3            -67      67                Points:         135
 RS_GRID| Real space fully replicated
 RS_GRID| Group size                                                           1

 RS_GRID| Information for grid number                                          4
 RS_GRID|   Bounds   1            -40      39                Points:          80
 RS_GRID|   Bounds   2            -40      39                Points:          80
 RS_GRID|   Bounds   3            -40      39                Points:          80
 RS_GRID| Real space fully replicated
 RS_GRID| Group size                                                           1

  HFX_INFO| Replica ID:                                                        1
  HFX_INFO| FRACTION:                                               0.2500000000
  HFX_INFO| Interaction Potential:                                       COULOMB
  HFX_INFO| EPS_SCHWARZ:                                                 1.0E-10
  HFX_INFO| EPS_SCHWARZ_FORCES                                           1.0E-08
  HFX_INFO| EPS_STORAGE_SCALING:                                         1.0E+00
  HFX_INFO| NBINS:                                                            64
  HFX_INFO| BLOCK_SIZE:                                                        1
  HFX_INFO| Number of periodic shells considered:                           NONE
  HFX_INFO| Number of periodic cells considered:                            NONE


 OVERLAP MATRIX CONDITION NUMBER
 1-Norm Condition Number (Estimate)
   CN : |A|*|A^-1|:  1.765E+001 *  6.925E+002   = 1.222E+004  Log(1-CN):  4.0871
 1-Norm and 2-Norm Condition Numbers using Diagonalization
   CN : |A|*|A^-1|:  1.765E+001 *  7.301E+002   = 1.289E+004  Log(1-CN):  4.1101
   CN : max/min ev:  8.060E+000 /  2.882E-003   = 2.796E+003  Log(2-CN):  3.4466

 Number of electrons:                                                         88
 Number of occupied orbitals:                                                 44
 Number of molecular orbitals:                                               126

 Number of orbital functions:                                                126
 Number of independent orbital functions:                                    126

 Extrapolation method: initial_guess

 Atomic guess: The first density matrix is obtained in terms of atomic orbitals
               and electronic configurations assigned to each atomic kind

 Guess for atomic kind: F

 Electronic structure
    Total number of core electrons                                          0.00
    Total number of valence electrons                                       9.00
    Total number of electrons                                               9.00
    Multiplicity                                                   not specified
    S      2.00  2.00
    P      5.00


 *******************************************************************************
                  Iteration          Convergence                     Energy [au]
 *******************************************************************************
                          1         1.76631                     -97.382601001584
                          2        0.733077                     -97.638117814779
                          3        0.236044E-01                 -97.763080317066
                          4        0.129276E-02                 -97.763171293327
                          5        0.127515E-04                 -97.763171569368
                          6        0.652856E-05                 -97.763171569388
                          7        0.402946E-06                 -97.763171569395

 Energy components [Hartree]           Total Energy ::          -97.763171569395
                                        Band Energy ::          -52.906521210533
                                     Kinetic Energy ::           94.576587206004
                                   Potential Energy ::         -192.339758775399
                                      Virial (-V/T) ::            2.033693162944
                                        Core Energy ::         -136.205618721571
                                          XC Energy ::           -9.413532944534
                                     Coulomb Energy ::           47.855980096709

 Orbital energies  State     L     Occupation   Energy[a.u.]          Energy[eV]

                       1     0          2.000     -24.245521         -659.754171
                       2     0          2.000      -1.142652          -31.093129

                       1     1          5.000      -0.426035          -11.593012


 Total Electron Density at R=0:                                       279.502466

 Guess for atomic kind: O

 Electronic structure
    Total number of core electrons                                          0.00
    Total number of valence electrons                                       8.00
    Total number of electrons                                               8.00
    Multiplicity                                                   not specified
    S      2.00  2.00
    P      4.00


 *******************************************************************************
                  Iteration          Convergence                     Energy [au]
 *******************************************************************************
                          1        0.863863                     -73.413444334034
                          2        0.475457                     -73.501944400060
                          3        0.103564E-02                 -73.557269561969
                          4        0.190635E-03                 -73.557270044022
                          5        0.125020E-05                 -73.557270061478
                          6        0.707527E-06                 -73.557270061479

 Energy components [Hartree]           Total Energy ::          -73.557270061479
                                        Band Energy ::          -40.781734047812
                                     Kinetic Energy ::           71.485611268676
                                   Potential Energy ::         -145.042881330154
                                      Virial (-V/T) ::            2.028980080831
                                        Core Energy ::         -101.135954089231
                                          XC Energy ::           -7.619849605917
                                     Coulomb Energy ::           35.198533633670

 Orbital energies  State     L     Occupation   Energy[a.u.]          Energy[eV]

                       1     0          2.000     -18.754322         -510.331066
                       2     0          2.000      -0.915098          -24.901079

                       1     1          4.000      -0.360723           -9.815782


 Total Electron Density at R=0:                                       193.617216

 Guess for atomic kind: C

 Electronic structure
    Total number of core electrons                                          0.00
    Total number of valence electrons                                       6.00
    Total number of electrons                                               6.00
    Multiplicity                                                   not specified
    S      2.00  2.00
    P      2.00


 *******************************************************************************
                  Iteration          Convergence                     Energy [au]
 *******************************************************************************
                          1        0.110940                     -36.966846197933
                          2        0.618479E-01                 -36.973380131832
                          3        0.312040E-03                 -36.976281169724
                          4        0.543046E-05                 -36.976281232084
                          5        0.506043E-09                 -36.976281232104

 Energy components [Hartree]           Total Energy ::          -36.976281232104
                                        Band Energy ::          -20.794821508944
                                     Kinetic Energy ::           36.488299270274
                                   Potential Energy ::          -73.464580502377
                                      Virial (-V/T) ::            2.013373655983
                                        Core Energy ::          -49.914993802944
                                          XC Energy ::           -4.745664989265
                                     Coulomb Energy ::           17.684377560105

 Orbital energies  State     L     Occupation   Energy[a.u.]          Energy[eV]

                       1     0          2.000      -9.777613         -266.062376
                       2     0          2.000      -0.465310          -12.661731

                       1     1          2.000      -0.154488           -4.203828


 Total Electron Density at R=0:                                        77.917232

 Guess for atomic kind: H

 Electronic structure
    Total number of core electrons                                          0.00
    Total number of valence electrons                                       1.00
    Total number of electrons                                               1.00
    Multiplicity                                                   not specified
    S      1.00


 *******************************************************************************
                  Iteration          Convergence                     Energy [au]
 *******************************************************************************
                          1        0.962691E-02                  -0.444368661081
                          2        0.109107E-02                  -0.444473520424
                          3        0.117094E-03                  -0.444476577889
                          4        0.851579E-07                  -0.444476596085

 Energy components [Hartree]           Total Energy ::           -0.444476596085
[...]
 CHIMIA 59, 499-503 (2005).
 Ground and excited state density functional calculations with the Gaussian and 
 augmented-plane-wave method.
 https://doi.org/10.2533/000942905777676164

 M. Frigo, S. G. Johnson.
 Proc. IEEE 93, 216-231 (2005).
 The design and implementation of FFTW3.
 https://doi.org/10.1109/JPROC.2004.840301

 R. L. Martin.
 J. Chem. Phys. 118, 4775-4777 (2003).
 Natural transition orbitals.
 https://doi.org/10.1063/1.1558471

 M. Krack, M. Parrinello.
 Phys. Chem. Chem. Phys. 2, 2105-2112 (2000).
 All-electron ab-initio molecular dynamics.
 https://doi.org/10.1039/b001167n

 G. Lippert, J. Hutter, M. Parrinello.
 Theor. Chem. Acc. 103, 124-140 (1999).
 The Gaussian and augmented-plane-wave density functional method for ab initio 
 molecular dynamics simulations.
 https://doi.org/10.1007/s002140050523

 J. P. Perdew, K. Burke, M. Ernzerhof.
 Phys. Rev. Lett. 77, 3865-3868 (1996).
 Generalized gradient approximation made simple.
 https://doi.org/10.1103/PhysRevLett.77.3865


 -------------------------------------------------------------------------------
 -                                                                             -
 -                                T I M I N G                                  -
 -                                                                             -
 -------------------------------------------------------------------------------
 SUBROUTINE                       CALLS  ASD         SELF TIME        TOTAL TIME
                                MAXIMUM       AVERAGE  MAXIMUM  AVERAGE  MAXIMUM
 CP2K                                 1  1.0    0.019    0.034  339.993  339.997
 qs_energies                          1  2.0    0.000    0.000  339.334  339.337
 qs_energies_properties               1  3.0    0.000    0.000  215.835  215.837
 tddfpt                               1  4.0    0.000    0.000  215.835  215.837
 tddfpt_energies                      1  5.0    0.000    0.000  215.825  215.827
 tddfpt_davidson_solver               1  6.0    0.000    0.001  214.944  214.946
 tddfpt_compute_Aop_evects            7  7.0    0.000    0.000  214.319  214.321
 fhxc_kernel                          7  8.0    0.004    0.005  204.967  204.969
 fft_wrap_pw1pw2                   4284 11.0    0.066    0.083  123.591  124.962
 fft_wrap_pw1pw2_250               3018 12.1    5.763    6.216  119.958  121.278
 scf_env_do_scf                       1  3.0    0.000    0.000  121.175  121.177
 scf_env_do_scf_inner_loop           70  4.0    0.001    0.004  121.175  121.177
 pw_poisson_solve                   210  9.3    2.380    2.599  116.889  117.632
 fft3d_ps                          4284 13.0   43.646   48.340   91.555   94.302
 tddfpt_apply_coulomb               140  9.0    0.002    0.002   88.858   89.521
 qs_ks_update_qs_env                 70  5.0    0.000    0.001   88.009   88.012
 rebuild_ks_matrix                   70  6.0    0.000    0.000   88.005   88.008
 qs_ks_build_kohn_sham_matrix        70  7.0    0.009    0.010   88.005   88.008
 ps_wavelet_solve                   210 10.3   65.577   69.656   85.154   85.515
 mp_alltoall_d54                    210 11.3   11.514   66.626   11.514   66.626
 xc_pw_derive                      1263 11.0    0.008    0.009   57.806   58.793
 qs_rho_update_rho_low              212  7.7    0.002    0.003   55.360   55.496
 calculate_rho_elec                 212  8.7    1.659    1.704   55.180   55.316
 tddfpt_apply_xc_analytic           140  9.0    0.356    0.387   49.985   50.257
 mp_alltoall_z22v                  4284 15.0   35.048   44.396   35.048   44.396
 xc_pw_divergence                   210 10.7    0.005    0.005   38.559   39.428
 density_rs2pw                      212  9.7    0.007    0.007   29.917   31.529
 xc_calc_2nd_deriv_analytical       980 10.5    2.422    2.644   29.225   29.281
 yz_to_x                           2110 14.3    5.743    6.220   23.069   28.008
 x_to_yz                           2174 13.7    7.036    8.014   24.758   27.796
 qs_vxc_create                       70  8.0    0.001    0.001   26.852   26.852
 xc_vxc_pw_create                    70  9.0    0.737    0.780   26.851   26.851
 grid_collocate_task_list           212  9.7   22.905   23.971   22.905   23.971
 integrate_v_rspace                 210  9.0    0.005    0.007   22.326   22.368
 potential_pw2rs                    210 10.0    0.049    0.053   21.696   21.752
 prepare_gapw_den                   211  8.7    0.003    0.003   16.013   16.316
 transfer_rs2pw                    1060 10.6    0.014    0.017   14.737   16.147
 transfer_pw2rs                    1051 10.9    0.012    0.015   15.863   16.097
 put_rho0_on_grid                   211  9.7    1.680    1.748   15.667   15.970
 gspace_mixing                       69  5.0    0.540    0.555   14.573   14.573
 mp_waitany                       27874 12.7   12.159   13.961   12.159   13.961
 xc_rho_set_and_dset_create          71 10.0    0.416    0.453   13.025   13.815
 mp_alltoall_d45                    211 11.3    7.649   11.868    7.649   11.868
 integrate_four_center              350  9.8    6.910   10.275   11.720   11.738
 pw_gather_p                       2110 13.3    9.947   11.381    9.947   11.381
 broyden_mixing                      69  6.0   11.025   11.246   11.287   11.309
 transfer_rs2pw_250                 424 11.6    4.282    4.650    9.880   11.307
 transfer_pw2rs_250                 421 11.7    4.521    4.782   10.472   10.819
 pw_scatter_p                      2174 12.7    9.633   10.156    9.633   10.156
 tddfpt_apply_hfx                     7  8.0    0.001    0.002    9.204    9.204
 tddft_hfx_matrix                   280  9.0    0.003    0.004    8.611    8.625
 mp_alltoall_d11v                 12740 11.6    3.902    8.536    3.902    8.536
 pw_derive                         1893 11.8    7.853    8.355    7.853    8.355
 sum_up_and_integrate                70  8.0    0.001    0.001    7.730    7.742
 mp_sync                           1876 11.4    3.445    7.344    3.445    7.344
 integrate_vhg0_rspace              210  9.3    0.062    0.088    6.666    6.694
 mp_waitall_1                    118954 13.7    3.108    5.260    3.108    5.260
 pw_copy                           2875 10.9    4.851    5.135    4.851    5.135
 pw_copy_to_array                  2110 13.3    3.904    4.689    3.904    4.689
 dbcsr_multiply_generic            1236 10.3    0.027    0.030    4.096    4.514
 mp_sum_d                          4195  7.6    2.370    4.507    2.370    4.507
 pw_poisson_set                     211 10.3    0.004    0.005    4.217    4.445
 cp2k_distribution_to_z_slices      210 10.3    1.956    2.261    3.828    4.409
 cp_dbcsr_plus_fm_fm_t              210  8.3    0.002    0.002    3.678    4.084
 multiply_cannon                   1236 11.3    0.055    0.058    1.741    3.667
 pw_axpy                           2248 10.7    3.351    3.647    3.351    3.647
 xc_functional_eval                1331 10.7    0.001    0.002    2.758    3.564
 pbe_lda_eval                      1331 11.7    2.757    3.562    2.757    3.562
 fft_wrap_pw1pw2_90                 422 11.8    0.147    0.156    2.767    3.326
 multiply_cannon_loop              1236 12.3    0.032    0.033    1.224    3.144
 hfx_ks_matrix                       70  8.0    0.001    0.001    3.117    3.133
 rs_grid_zero                      1053 11.9    2.881    3.034    2.881    3.034
 multiply_cannon_metrocomm3        9888 13.3    0.013    0.013    0.787    3.020
 mp_sum_l                          4840 10.4    2.041    2.927    2.041    2.927
 pw_integral_ab_c1d_c1d_gs          210 10.3    2.278    2.315    2.539    2.686
 transfer_pw2rs_30                  210 12.0    1.449    1.580    2.525    2.664
 pw_copy_from_array                2174 12.7    2.535    2.659    2.535    2.659
 transfer_pw2rs_90                  210 12.0    0.677    0.754    2.326    2.587
 transfer_rs2pw_90                  212 11.7    0.682    0.749    2.102    2.379
 pw_zero                           2246 10.6    2.146    2.282    2.146    2.282
 transfer_rs2pw_30                  212 11.7    0.683    0.788    2.090    2.223
 mp_sendrecv_dv                   13144 12.7    1.902    2.079    1.902    2.079
 multiply_cannon_metrocomm1        9888 13.3    0.006    0.007    0.186    1.601
 qs_energies_init_hamiltonians        1  3.0    0.000    0.000    1.467    1.467
 build_core_hamiltonian_matrix        1  4.0    0.000    0.000    1.400    1.400
 overlap_condnum                      1  5.0    0.000    0.000    1.399    1.399
 copy_dbcsr_to_fm                   978  9.2    0.007    0.007    1.098    1.347
 mp_max_i                           683  4.7    0.594    1.272    0.594    1.272
 Vh_1c_gg_integrals                 210  9.3    0.019    0.060    0.550    1.215
 dbcsr_complete_redistribute       2987 10.4    0.066    0.083    1.167    1.194
 cp_dbcsr_sm_fm_multiply            886  8.6    0.010    0.011    1.050    1.060
 calculate_xc_2nd_deriv_atom        140  9.0    0.071    0.256    0.195    0.993
 mp_sum_dm                         9605  9.9    0.617    0.864    0.617    0.864
 mp_isend_dv                      41820 13.6    0.406    0.852    0.406    0.852
 fft_wrap_pw1pw2_30                 422 11.8    0.032    0.033    0.640    0.849
 gaVxcgb_GC                         630  9.7    0.120    0.833    0.120    0.833
 prepare_dr1dr                      980 11.5    0.761    0.823    0.761    0.823
 init_scf_run                         1  3.0    0.000    0.000    0.789    0.790
 scf_env_initial_rho_setup            1  4.0    0.000    0.000    0.784    0.784
 cp_fm_diag_elpa                    119  7.2    0.000    0.000    0.775    0.777
 cp_fm_diag_elpa_base               119  8.2    0.655    0.767    0.744    0.770
 transfer_rs2pw_10                  212 11.7    0.156    0.171    0.652    0.721
 mp_alltoall_i11v                  9940 11.4    0.295    0.695    0.295    0.695
 multiply_cannon_metrocomm4        8652 13.3    0.014    0.015    0.181    0.681
 make_m2s                          2472 11.3    0.014    0.015    0.300    0.680
 qs_scf_new_mos                      70  5.0    0.001    0.001    0.565    0.667
 integrate_four_center_main         350 10.8    0.048    0.075    0.596    0.644
 make_images                       2472 12.3    0.035    0.036    0.251    0.628
 integrate_four_center_bin        23821 11.8    0.547    0.603    0.547    0.603
 transfer_pw2rs_10                  210 12.0    0.208    0.225    0.529    0.594
 grid_integrate_task_list           210 10.0    0.245    0.590    0.245    0.590
 hybrid_alltoall_any               3451 13.4    0.014    0.016    0.137    0.577
 rs_gather_matrices                 210 10.0    0.004    0.005    0.380    0.569
 mp_alltoall_i22                   3966 11.4    0.431    0.568    0.431    0.568
 pw_poisson_rebuild                 210 10.3    0.000    0.000    0.530    0.556
 ps_wavelet_create                    1 10.0    0.000    0.000    0.530    0.556
 RS_z_slice_distribution              1 11.0    0.461    0.506    0.530    0.556
 rs_scatter_matrices                212  9.7    0.002    0.003    0.202    0.553
 scale_and_distribute               420 11.3    0.484    0.528    0.484    0.528
 cp_dbcsr_sm_fm_multiply_core       886  9.6    0.001    0.002    0.479    0.491
 powell_optimize                 296057 11.0    0.430    0.485    0.430    0.485
 mp_allgather_i34                  1236 12.3    0.424    0.457    0.424    0.457
 make_images_data                  2472 13.3    0.015    0.018    0.075    0.454
 dbcsr_desymmetrize_deep            979 10.2    0.011    0.013    0.433    0.443
 calculate_vxc_atom                  70  8.0    0.037    0.083    0.426    0.426
 qs_init_subsys                       1  2.0    0.001    0.001    0.417    0.417
 qs_env_setup                         1  3.0    0.000    0.000    0.414    0.415
 qs_env_rebuild_pw_env                2  3.5    0.000    0.000    0.414    0.415
 pw_env_rebuild                       1  5.0    0.000    0.000    0.414    0.415
 mp_sum_dv                        14405  8.9    0.319    0.412    0.319    0.412
 pw_grid_setup                        4  6.0    0.000    0.000    0.405    0.405
 pw_grid_setup_internal               4  7.0    0.005    0.006    0.405    0.405
 pw_scale                           560  9.5    0.350    0.381    0.350    0.381
 tddfpt_construct_ground_state_       1  6.0    0.000    0.000    0.372    0.374
 parallel_gemm_fm                  1332  8.2    0.001    0.001    0.328    0.353
 parallel_gemm_fm_cosma            1332  9.2    0.327    0.352    0.327    0.352
 copy_fm_to_dbcsr                  2007  9.5    0.005    0.005    0.312    0.347
 calc_screening_functions             1 10.0    0.084    0.089    0.332    0.341
 eigensolver_symm                    70  6.0    0.005    0.006    0.322    0.323
 pw_grid_sort                         4  8.0    0.220    0.229    0.307    0.320
 calc_pair_dist_radii                 1 10.0    0.079    0.080    0.261    0.316
 calculate_rho_atom                 844  9.7    0.195    0.309    0.195    0.309
 calculate_dm_sparse                 70  6.0    0.000    0.000    0.202    0.303
 create_kernel_env                    1  6.0    0.000    0.000    0.226    0.250
 xc_prep_2nd_deriv                    1  7.0    0.000    0.000    0.226    0.250
 tddfpt_orthonormalize_psi1_psi       8  6.9    0.006    0.007    0.243    0.243
 cp_fm_power                          1  6.0    0.000    0.000    0.238    0.238
 fft_wrap_pw1pw2_10                 422 11.8    0.007    0.008    0.160    0.197
 tddfpt_print_nto_analysis            1  6.0    0.001    0.002    0.195    0.195
 tddfpt_compute_ritz_vects            7  7.0    0.002    0.002    0.193    0.193
 create_qs_kind_set                   1  2.0    0.000    0.000    0.189    0.189
 read_qs_kind                         4  3.0    0.048    0.074    0.189    0.189
 calculate_rho_atom_coeff           212  8.7    0.039    0.043    0.178    0.179
 mp_max_d                           192  8.2    0.106    0.178    0.106    0.178
 self_consistency_check              70  5.0    0.000    0.000    0.105    0.178
 cp_sm_mix                           70  6.0    0.000    0.000    0.105    0.177
 arnoldi_conjugate_gradient           5  6.0    0.004    0.005    0.170    0.170
 mp_isendrecv_dv                  34720 12.2    0.070    0.169    0.070    0.169
 xc_2nd_deriv_of_r                  840 10.0    0.005    0.032    0.028    0.167
 tddfpt_compute_residual_vects        6  7.0    0.000    0.000    0.158    0.158
 tddfpt_apply_energy_diff             7  8.0    0.000    0.000    0.148    0.148
 parser_read_line                 21024  4.0    0.003    0.003    0.141    0.143
 dbcsr_finalize                    7843 11.3    0.018    0.026    0.111    0.140
 parser_read_line_low                33  5.0    0.004    0.082    0.138    0.140
 mp_bcast_b_src                     189  8.0    0.054    0.140    0.054    0.140
 broadcast_input_information         33  6.0    0.005    0.006    0.134    0.139
 cp_fm_uplo_to_full                 120  9.2    0.043    0.133    0.043    0.133
 mp_bcast_i_src                     132  7.0    0.115    0.122    0.115    0.122
 update_ks_atom                     210  8.7    0.024    0.031    0.082    0.111
 cp_fm_geeig                         20  7.0    0.001    0.001    0.103    0.103
 dbcsr_sym_matrix_vector_mult      1275  7.0    0.009    0.010    0.097    0.101
 integrate_four_center_dist_KS      350 10.8    0.013    0.020    0.093    0.099
 make_images_sizes                 2472 13.3    0.002    0.002    0.086    0.098
 mp_alltoall_i44                   2472 14.3    0.085    0.097    0.085    0.097
 mp_cart_sub                       1958 11.2    0.094    0.096    0.094    0.096
 mp_cart_create                    1823 10.5    0.088    0.094    0.089    0.095
 sort_shells                          4  9.0    0.088    0.092    0.088    0.092
 cp_fm_write_unformatted             24  7.0    0.087    0.090    0.087    0.090
 cp_fm_trace_a1b1t1_aa            10080  8.0    0.020    0.021    0.089    0.090
 mp_bcast_dm                       6300  9.7    0.058    0.087    0.058    0.087
 xc_pw_smooth                        70 10.0    0.000    0.000    0.072    0.082
 mp_isend_dm3                      7602 12.7    0.067    0.082    0.067    0.082
 tddfpt_orthogonalize_psi1_psi0       8  6.9    0.000    0.000    0.056    0.078
 write_mo_set_to_restart             70  5.0    0.003    0.074    0.074    0.077
 dbcsr_merge_all                   6399 12.3    0.041    0.051    0.064    0.077
 offload_free_buffer                218 10.1    0.052    0.076    0.052    0.076
 write_mo_set_low                     4  6.0    0.000    0.000    0.071    0.073
 integrate_four_center_load         350 10.8    0.000    0.000    0.066    0.073
 hfx_load_balance                     1 11.0    0.000    0.000    0.066    0.073
 dbcsr_create_new                 25058 11.2    0.051    0.053    0.068    0.072
 dbcsr_add_d                       1965  7.1    0.001    0.001    0.018    0.068
 hfx_load_balance_range               1 12.0    0.000    0.000    0.061    0.068
 mixing_init                          1  5.0    0.064    0.068    0.068    0.068
 mp_rank_compare                   4284 14.0    0.057    0.067    0.057    0.067
 dbcsr_add_anytype                 1965  8.1    0.002    0.008    0.017    0.067
 qs_env_update_s_mstruct              1  4.0    0.000    0.000    0.013    0.067
 qs_create_task_list                  1  5.0    0.000    0.000    0.013    0.067
 generate_qs_task_list                1  6.0    0.000    0.000    0.013    0.067
 distribute_tasks                     1  7.0    0.000    0.000    0.013    0.067
 scf_post_calculation_gpw             1  3.0    0.000    0.000    0.066    0.066
 write_available_results              1  4.0    0.000    0.000    0.066    0.066
 write_mo_free_results                1  5.0    0.009    0.010    0.066    0.066
 create_local_tasks                   1  8.0    0.000    0.000    0.012    0.066
 mp_alltoall_l11v                     1  9.0    0.012    0.066    0.012    0.066
 calculate_ecore_overlap              1  4.0    0.000    0.000    0.054    0.064
 vxc_of_r_new                       420  9.0    0.001    0.009    0.010    0.058
 integrate_four_center_getP         350 10.8    0.012    0.013    0.053    0.057
 pw_grid_assign                       4  8.0    0.032    0.057    0.057    0.057
 cp_fm_redistribute_end             119  8.2    0.027    0.054    0.027    0.054
 dbcsr_iterator_start             36290 10.8    0.036    0.042    0.044    0.052
 dbcsr_work_create                11086 12.1    0.026    0.033    0.041    0.051
 copy_fm_to_dbcsr_bc               2007 10.5    0.011    0.012    0.041    0.045
 dbcsr_col_vec_to_rep_row          1275  8.0    0.004    0.005    0.035    0.039
 dbcsr_data_new                  111593 12.4    0.035    0.039    0.035    0.039
 mp_irecv_dv                      40936 13.6    0.021    0.036    0.021    0.036
 dbcsr_work_destroy_all           11086 13.1    0.018    0.024    0.027    0.036
 multiply_cannon_multrec           9888 13.3    0.015    0.031    0.019    0.034
 -------------------------------------------------------------------------------

 The number of warnings for this run is : 1
 
 -------------------------------------------------------------------------------
  **** **** ******  **  PROGRAM ENDED AT                 2025-06-23 20:37:23.783
 ***** ** ***  *** **   PROGRAM RAN ON                     n2cn0603.ab2021.local
 **    ****   ******    PROGRAM RAN BY                                  metdyn02
 ***** **    ** ** **   PROGRAM PROCESS ID                                547237
  **** **  *******  **  PROGRAM STOPPED IN /scratch/hpc-prf-metdyn/metdyn02_Remi
                                           /10_MOL/05_MOL/aUKBqsEOTmq69kFe5R_nOg
                                           /5k_set_final_qzvp/WEBNAU/mini-SZV/TD
                                           DFT/1e-4
