 DBCSR| CPU Multiplication driver                                           BLAS (U)
 DBCSR| Multrec recursion limit                                              512 (U)
 DBCSR| Multiplication stack size                                           1000 (D)
 DBCSR| Maximum elements for images                                    UNLIMITED (U)
 DBCSR| Multiplicative factor virtual images                                   1 (U)
 DBCSR| Use multiplication densification                                       T (D)
 DBCSR| Multiplication size stacks                                             3 (U)
 DBCSR| Use memory pool for CPU allocation                                     F (U)
 DBCSR| Number of 3D layers                                               SINGLE (U)
 DBCSR| Use MPI memory allocation                                              F (U)
 DBCSR| Use RMA algorithm                                                      F (U)
 DBCSR| Use Communication thread                                               T (U)
 DBCSR| Communication thread load                                             75 (D)
 DBCSR| MPI: My process id                                                     0
 DBCSR| MPI: Number of processes                                              48
 DBCSR| OMP: Current number of threads                                         4
 DBCSR| OMP: Max number of threads                                             4
 DBCSR| Split modifier for TAS multiplication algorithm                  1.0E+00 (U)


  **** **** ******  **  PROGRAM STARTED AT               2025-04-08 03:55:31.953
 ***** ** ***  *** **   PROGRAM STARTED ON                          i05r09c06s11
 **    ****   ******    PROGRAM STARTED BY                               di38fab
 ***** **    ** ** **   PROGRAM PROCESS ID                               3505540
  **** **  *******  **  PROGRAM STARTED IN /hppfs/scratch/04/di38fab/05_MOL/W4-1
                                           1+ALK/mgs/aug-cc-pVTZ/GW+BSE

 CP2K| version string:                 CP2K version 2025.1 (Development Version)
 CP2K| source code revision number:                                  git:d2e611a
 CP2K| cp2kflags: omp libint fftw3 libxc parallel scalapack max_contr=4         
 CP2K| is freely available from                            https://www.cp2k.org/
 CP2K| Program compiled at                       Thu 06 Mar 2025 05:09:20 PM CET
 CP2K| Program compiled on                                               login02
 CP2K| Program compiled for                                        Supermuc-foss
 CP2K| Data directory path                  /hppfs/work/pn36zo/di38fab/cp2k/data
 CP2K| Input file name                                                    GW.inp

 GLOBAL| Force Environment number                                              1
 GLOBAL| Basis set file name            /hppfs/scratch/04/di38fab/04_TMD/BASIS_A
 GLOBAL| Potential file name            /hppfs/work/pn36zo/di38fab/cp2k/data/ALL
 GLOBAL| MM Potential file name                                     MM_POTENTIAL
 GLOBAL| Coordinate file name                                      __STD_INPUT__
 GLOBAL| Method name                                                        CP2K
 GLOBAL| Project name                                                       MoS2
 GLOBAL| Run type                                                         ENERGY
 GLOBAL| FFT library                                                       FFTW3
 GLOBAL| Diagonalization library                                       ScaLAPACK
 GLOBAL| DGEMM library                                                      BLAS
 GLOBAL| Orthonormality check for eigenvectors                          DISABLED
 GLOBAL| Matrix multiplication library                                 ScaLAPACK
 GLOBAL| All-to-all communication in single precision                          F
 GLOBAL| FFTs using library dependent lengths                                  F
 GLOBAL| Grid backend                                                       AUTO
 GLOBAL| Global print level                                               MEDIUM
 GLOBAL| MPI I/O enabled                                                       T
 GLOBAL| Total number of message passing processes                            48
 GLOBAL| Number of threads for this process                                    4
 GLOBAL| This output is from process                                           0
 GLOBAL| OpenMP stack size per thread (OMP_STACKSIZE)                    default
 GLOBAL| CPU model name             Intel(R) Xeon(R) Platinum 8174 CPU @ 3.10GHz

 MEMORY| system memory details [Kb]
 MEMORY|                        rank 0           min           max       average
 MEMORY| MemTotal             98436664      98436664      98436900      98436723
 MEMORY| MemFree              84105516      83846676      84123160      83981564
 MEMORY| Buffers                     0             0             0             0
 MEMORY| Cached                2400220       2393284       2401236       2398172
 MEMORY| Slab                  1261772       1257836       1265920       1262519
 MEMORY| SReclaimable           289860        277876        289860        284527
 MEMORY| MemLikelyFree        86795596      86531384      86795596      86664263


 *** Fundamental physical constants (SI units) ***

 *** Literature: B. J. Mohr and B. N. Taylor,
 ***             CODATA recommended values of the fundamental physical
 ***             constants: 2006, Web Version 5.1
 ***             http://physics.nist.gov/constants

 Speed of light in vacuum [m/s]                             2.99792458000000E+08
 Magnetic constant or permeability of vacuum [N/A**2]       1.25663706143592E-06
 Electric constant or permittivity of vacuum [F/m]          8.85418781762039E-12
 Planck constant (h) [J*s]                                  6.62606896000000E-34
 Planck constant (h-bar) [J*s]                              1.05457162825177E-34
 Elementary charge [C]                                      1.60217648700000E-19
 Electron mass [kg]                                         9.10938215000000E-31
 Electron g factor [ ]                                     -2.00231930436220E+00
 Proton mass [kg]                                           1.67262163700000E-27
 Fine-structure constant                                    7.29735253760000E-03
 Rydberg constant [1/m]                                     1.09737315685270E+07
 Avogadro constant [1/mol]                                  6.02214179000000E+23
 Boltzmann constant [J/K]                                   1.38065040000000E-23
 Atomic mass unit [kg]                                      1.66053878200000E-27
 Bohr radius [m]                                            5.29177208590000E-11

 *** Conversion factors ***

 [u] -> [a.u.]                                              1.82288848426455E+03
 [Angstrom] -> [Bohr] = [a.u.]                              1.88972613288564E+00
 [a.u.] = [Bohr] -> [Angstrom]                              5.29177208590000E-01
 [a.u.] -> [s]                                              2.41888432650478E-17
 [a.u.] -> [fs]                                             2.41888432650478E-02
 [a.u.] -> [J]                                              4.35974393937059E-18
 [a.u.] -> [N]                                              8.23872205491840E-08
 [a.u.] -> [K]                                              3.15774647902944E+05
 [a.u.] -> [kJ/mol]                                         2.62549961709828E+03
 [a.u.] -> [kcal/mol]                                       6.27509468713739E+02
 [a.u.] -> [Pa]                                             2.94210107994716E+13
 [a.u.] -> [bar]                                            2.94210107994716E+08
 [a.u.] -> [atm]                                            2.90362800883016E+08
 [a.u.] -> [eV]                                             2.72113838565563E+01
 [a.u.] -> [Hz]                                             6.57968392072181E+15
 [a.u.] -> [1/cm] (wave numbers)                            2.19474631370540E+05
 [a.u./Bohr**2] -> [1/cm]                                   5.14048714338585E+03
 

 CELL_TOP| Volume [angstrom^3]:                                     27000.000000
 CELL_TOP| Vector a [angstrom    30.000     0.000     0.000   |a| =    30.000000
 CELL_TOP| Vector b [angstrom     0.000    30.000     0.000   |b| =    30.000000
 CELL_TOP| Vector c [angstrom     0.000     0.000    30.000   |c| =    30.000000
 CELL_TOP| Angle (b,c), alpha [degree]:                                90.000000
 CELL_TOP| Angle (a,c), beta  [degree]:                                90.000000
 CELL_TOP| Angle (a,b), gamma [degree]:                                90.000000
 CELL_TOP| Numerically orthorhombic:                                         YES
 CELL_TOP| Periodicity                                                      NONE

 GENERATE|  Preliminary Number of Bonds generated:                             0
 GENERATE|  Achieved consistency in connectivity generation.

 CELL| Volume [angstrom^3]:                                         27000.000000
 CELL| Vector a [angstrom]:      30.000     0.000     0.000   |a| =    30.000000
 CELL| Vector b [angstrom]:       0.000    30.000     0.000   |b| =    30.000000
 CELL| Vector c [angstrom]:       0.000     0.000    30.000   |c| =    30.000000
 CELL| Angle (b,c), alpha [degree]:                                    90.000000
 CELL| Angle (a,c), beta  [degree]:                                    90.000000
 CELL| Angle (a,b), gamma [degree]:                                    90.000000
 CELL| Numerically orthorhombic:                                             YES
 CELL| Periodicity                                                          NONE

 CELL_REF| Volume [angstrom^3]:                                     27000.000000
 CELL_REF| Vector a [angstrom    30.000     0.000     0.000   |a| =    30.000000
 CELL_REF| Vector b [angstrom     0.000    30.000     0.000   |b| =    30.000000
 CELL_REF| Vector c [angstrom     0.000     0.000    30.000   |c| =    30.000000
 CELL_REF| Angle (b,c), alpha [degree]:                                90.000000
 CELL_REF| Angle (a,c), beta  [degree]:                                90.000000
 CELL_REF| Angle (a,b), gamma [degree]:                                90.000000
 CELL_REF| Numerically orthorhombic:                                         YES
 CELL_REF| Periodicity                                                      NONE

 *******************************************************************************
 *******************************************************************************
 **                                                                           **
 **     #####                         ##              ##                      **
 **    ##   ##            ##          ##              ##                      **
 **   ##     ##                       ##            ######                    **
 **   ##     ##  ##   ##  ##   #####  ##  ##   ####   ##    #####    #####    **
 **   ##     ##  ##   ##  ##  ##      ## ##   ##      ##   ##   ##  ##   ##   **
 **   ##  ## ##  ##   ##  ##  ##      ####     ###    ##   ######   ######    **
 **    ##  ###   ##   ##  ##  ##      ## ##      ##   ##   ##       ##        **
 **     #######   #####   ##   #####  ##  ##  ####    ##    #####   ##        **
 **           ##                                                    ##        **
 **                                                                           **
 **                                                ... make the atoms dance   **
 **                                                                           **
 **            Copyright (C) by CP2K developers group (2000-2025)             **
 **                      J. Chem. Phys. 152, 194103 (2020)                    **
 **                                                                           **
 *******************************************************************************

 DFT| Spin restricted Kohn-Sham (RKS) calculation                            RKS
 DFT| Multiplicity                                                             1
 DFT| Number of spin states                                                    1
 DFT| Charge                                                                   0
 DFT| Self-interaction correction (SIC)                                       NO
 DFT| Cutoffs: density                                              1.000000E-10
 DFT|          gradient                                             1.000000E-10
 DFT|          tau                                                  1.000000E-10
 DFT|          cutoff_smoothing_range                               0.000000E+00
 DFT| XC density smoothing                                                  NONE
 DFT| XC derivatives                                                          PW

 FUNCTIONAL| PBE:
 FUNCTIONAL| J.P.Perdew, K.Burke, M.Ernzerhof, Phys. Rev. Letter, vol. 77, n 18,
 FUNCTIONAL|  pp. 3865-3868, (1996)sx=0.750sc=1.000{spin unpolarized}           


 QS| Method:                                                                GAPW
 QS| Density plane wave grid type                        NON-SPHERICAL FULLSPACE
 QS| Number of grid levels:                                                    4
 QS| Density cutoff [a.u.]:                                                250.0
 QS| Multi grid cutoff [a.u.]: 1) grid level                               250.0
 QS|                           2) grid level                                83.3
 QS|                           3) grid level                                27.8
 QS|                           4) grid level                                 9.3
 QS| Grid level progression factor:                                          3.0
 QS| Relative density cutoff [a.u.]:                                        50.0
 QS| Interaction thresholds: eps_pgf_orb:                                1.0E-12
 QS|                         eps_filter_matrix:                          0.0E+00
 QS|                         eps_core_charge:                            1.0E-14
 QS|                         eps_rho_gspace:                             1.0E-12
 QS|                         eps_rho_rspace:                             1.0E-12
 QS|                         eps_gvg_rspace:                             1.0E-06
 QS|                         eps_ppl:                                    1.0E-02
 QS|                         eps_ppnl:                                   1.0E-08
 QS| GAPW|      One center basis from orbital basis primitives
 QS| GAPW|                   eps_fit:                                    1.0E-04
 QS| GAPW|                   eps_iso:                                    1.0E-12
 QS| GAPW|                   eps_svd:                                    1.0E-08
 QS| GAPW|                   eps_cpc:                                    1.0E-12
 QS| GAPW|   atom-r-grid: quadrature:                                     GC_LOG
 QS| GAPW|      atom-s-grid:  max l :                                          6
 QS| GAPW|      max_l_rho0 :                                                   2


 ATOMIC KIND INFORMATION

  1. Atomic kind: mg                                    Number of atoms:       1

     Orbital Basis Set                                               aug-cc-pVTZ

       Number of orbital shell sets:                                           8
       Number of orbital shells:                                              16
       Number of primitive Cartesian functions:                               32
       Number of Cartesian basis functions:                                   59
       Number of spherical basis functions:                                   50
       Norm type:                                                              2

       Normalised Cartesian orbitals:

                        Set   Shell   Orbital            Exponent    Coefficient

                          1       1    1px               0.009000       0.003951
                          1       1    1py               0.009000       0.003951
                          1       1    1pz               0.009000       0.003951

                          2       1    1s                0.012000       0.025840

                          3       1    1px             316.900000       3.955286
                                                        74.860000       5.111999
                                                        23.720000       5.511879
                                                         8.669000       4.543781
                                                         3.363000       2.480773
                                                         1.310000       0.795438
                                                         0.491100       0.089588
                                                         0.236400      -0.001028
                                                         0.087330       0.000426
                                                         0.032370      -0.000031
                          3       1    1py             316.900000       3.955286
                                                        74.860000       5.111999
                                                        23.720000       5.511879
                                                         8.669000       4.543781
                                                         3.363000       2.480773
                                                         1.310000       0.795438
                                                         0.491100       0.089588
                                                         0.236400      -0.001028
                                                         0.087330       0.000426
                                                         0.032370      -0.000031
                          3       1    1pz             316.900000       3.955286
                                                        74.860000       5.111999
                                                        23.720000       5.511879
                                                         8.669000       4.543781
                                                         3.363000       2.480773
                                                         1.310000       0.795438
                                                         0.491100       0.089588
                                                         0.236400      -0.001028
                                                         0.087330       0.000426
                                                         0.032370      -0.000031

                          3       2    2px             316.900000       0.000000
                                                        74.860000       0.000000
                                                        23.720000       0.000000
                                                         8.669000       0.000000
                                                         3.363000       0.000000
                                                         1.310000       0.000000
                                                         0.491100       0.000000
                                                         0.236400       0.000000
                                                         0.087330       0.067670
                                                         0.032370       0.000000
                          3       2    2py             316.900000       0.000000
                                                        74.860000       0.000000
                                                        23.720000       0.000000
                                                         8.669000       0.000000
                                                         3.363000       0.000000
                                                         1.310000       0.000000
                                                         0.491100       0.000000
                                                         0.236400       0.000000
                                                         0.087330       0.067670
                                                         0.032370       0.000000
                          3       2    2pz             316.900000       0.000000
                                                        74.860000       0.000000
                                                        23.720000       0.000000
                                                         8.669000       0.000000
                                                         3.363000       0.000000
                                                         1.310000       0.000000
                                                         0.491100       0.000000
                                                         0.236400       0.000000
                                                         0.087330       0.067670
                                                         0.032370       0.000000

                          3       3    3px             316.900000      -0.628417
                                                        74.860000      -0.812157
                                                        23.720000      -0.888829
                                                         8.669000      -0.742594
                                                         3.363000      -0.415439
                                                         1.310000      -0.140725
                                                         0.491100      -0.022024
                                                         0.236400       0.041599
                                                         0.087330       0.038349
                                                         0.032370       0.007753
                          3       3    3py             316.900000      -0.628417
                                                        74.860000      -0.812157
                                                        23.720000      -0.888829
                                                         8.669000      -0.742594
                                                         3.363000      -0.415439
                                                         1.310000      -0.140725
                                                         0.491100      -0.022024
                                                         0.236400       0.041599
                                                         0.087330       0.038349
                                                         0.032370       0.007753
                          3       3    3pz             316.900000      -0.628417
                                                        74.860000      -0.812157
                                                        23.720000      -0.888829
                                                         8.669000      -0.742594
                                                         3.363000      -0.415439
                                                         1.310000      -0.140725
                                                         0.491100      -0.022024
                                                         0.236400       0.041599
                                                         0.087330       0.038349
                                                         0.032370       0.007753

                          3       4    4px             316.900000       0.000000
                                                        74.860000       0.000000
                                                        23.720000       0.000000
                                                         8.669000       0.000000
                                                         3.363000       0.000000
                                                         1.310000       0.000000
                                                         0.491100       0.000000
                                                         0.236400       0.000000
                                                         0.087330       0.000000
                                                         0.032370       0.019571
                          3       4    4py             316.900000       0.000000
                                                        74.860000       0.000000
                                                        23.720000       0.000000
                                                         8.669000       0.000000
                                                         3.363000       0.000000
                                                         1.310000       0.000000
                                                         0.491100       0.000000
                                                         0.236400       0.000000
                                                         0.087330       0.000000
                                                         0.032370       0.019571
                          3       4    4pz             316.900000       0.000000
                                                        74.860000       0.000000
                                                        23.720000       0.000000
                                                         8.669000       0.000000
                                                         3.363000       0.000000
                                                         1.310000       0.000000
                                                         0.491100       0.000000
                                                         0.236400       0.000000
                                                         0.087330       0.000000
                                                         0.032370       0.019571

                          4       1    1s           164900.000000       0.425703
                                                     24710.000000       0.795942
                                                      5628.000000       1.372026
                                                      1596.000000       2.212871
                                                       521.000000       3.321209
                                                       188.000000       4.451230
                                                        73.010000       4.892318
                                                        29.900000       3.661790
                                                        12.540000       1.257137
                                                         4.306000       0.070860
                                                         1.826000      -0.004941
                                                         0.741700       0.001174
                                                         0.145700      -0.000141
                                                         0.076120       0.000073
                                                         0.033100      -0.000011

                          4       2    2s           164900.000000      -0.107456
                                                     24710.000000      -0.201566
                                                      5628.000000      -0.346729
                                                      1596.000000      -0.565819
                                                       521.000000      -0.858670
                                                       188.000000      -1.216027
                                                        73.010000      -1.470276
                                                        29.900000      -1.451837
                                                        12.540000      -0.726118
                                                         4.306000       0.406589
                                                         1.826000       0.649288
                                                         0.741700       0.211913
                                                         0.145700       0.003558
                                                         0.076120      -0.001233
                                                         0.033100       0.000153

                          4       3    3s           164900.000000       0.000000
                                                     24710.000000       0.000000
                                                      5628.000000       0.000000
                                                      1596.000000       0.000000
                                                       521.000000       0.000000
                                                       188.000000       0.000000
                                                        73.010000       0.000000
                                                        29.900000       0.000000
                                                        12.540000       0.000000
                                                         4.306000       0.000000
                                                         1.826000       0.000000
                                                         0.741700       0.000000
                                                         0.145700       0.168076
                                                         0.076120       0.000000
                                                         0.033100       0.000000

                          4       4    4s           164900.000000       0.020714
                                                     24710.000000       0.038827
                                                      5628.000000       0.066874
                                                      1596.000000       0.109012
                                                       521.000000       0.165955
                                                       188.000000       0.235179
                                                        73.010000       0.287392
                                                        29.900000       0.287759
                                                        12.540000       0.150257
                                                         4.306000      -0.093555
                                                         1.826000      -0.169153
                                                         0.741700      -0.123987
                                                         0.145700       0.043667
                                                         0.076120       0.056522
                                                         0.033100       0.018025

                          4       5    5s           164900.000000       0.000000
                                                     24710.000000       0.000000
                                                      5628.000000       0.000000
                                                      1596.000000       0.000000
                                                       521.000000       0.000000
                                                       188.000000       0.000000
                                                        73.010000       0.000000
                                                        29.900000       0.000000
                                                        12.540000       0.000000
                                                         4.306000       0.000000
                                                         1.826000       0.000000
                                                         0.741700       0.000000
                                                         0.145700       0.000000
                                                         0.076120       0.000000
                                                         0.033100       0.055307

                          5       1    1dx2              0.044400       0.007069
                          5       1    1dxy              0.044400       0.012243
                          5       1    1dxz              0.044400       0.012243
                          5       1    1dy2              0.044400       0.007069
                          5       1    1dyz              0.044400       0.012243
                          5       1    1dz2              0.044400       0.007069

                          6       1    1fx3              0.086500       0.005974
                          6       1    1fx2y             0.086500       0.013358
                          6       1    1fx2z             0.086500       0.013358
                          6       1    1fxy2             0.086500       0.013358
                          6       1    1fxyz             0.086500       0.023136
                          6       1    1fxz2             0.086500       0.013358
                          6       1    1fy3              0.086500       0.005974
                          6       1    1fy2z             0.086500       0.013358
                          6       1    1fyz2             0.086500       0.013358
                          6       1    1fz3              0.086500       0.005974

                          7       1    1dx2              0.299800       0.199924
                                                         0.128500       0.000000
                          7       1    1dxy              0.299800       0.346278
                                                         0.128500       0.000000
                          7       1    1dxz              0.299800       0.346278
                                                         0.128500       0.000000
                          7       1    1dy2              0.299800       0.199924
                                                         0.128500       0.000000
                          7       1    1dyz              0.299800       0.346278
                                                         0.128500       0.000000
                          7       1    1dz2              0.299800       0.199924
                                                         0.128500       0.000000

                          7       2    2dx2              0.299800       0.000000
                                                         0.128500       0.045393
                          7       2    2dxy              0.299800       0.000000
                                                         0.128500       0.078623
                          7       2    2dxz              0.299800       0.000000
                                                         0.128500       0.078623
                          7       2    2dy2              0.299800       0.000000
                                                         0.128500       0.045393
                          7       2    2dyz              0.299800       0.000000
                                                         0.128500       0.078623
                          7       2    2dz2              0.299800       0.000000
                                                         0.128500       0.045393

                          8       1    1fx3              0.241700       0.060301
                          8       1    1fx2y             0.241700       0.134838
                          8       1    1fx2z             0.241700       0.134838
                          8       1    1fxy2             0.241700       0.134838
                          8       1    1fxyz             0.241700       0.233546
                          8       1    1fxz2             0.241700       0.134838
                          8       1    1fy3              0.241700       0.060301
                          8       1    1fy2z             0.241700       0.134838
                          8       1    1fyz2             0.241700       0.134838
                          8       1    1fz3              0.241700       0.060301

     RI Auxiliary Basis Set                                    aug-cc-pVTZ-RIFIT

       Number of orbital shell sets:                                          37
       Number of orbital shells:                                              37
       Number of primitive Cartesian functions:                               37
       Number of Cartesian basis functions:                                  191
       Number of spherical basis functions:                                  147
       Norm type:                                                              2

       Normalised Cartesian orbitals:

                        Set   Shell   Orbital            Exponent    Coefficient

                          1       1    1s                0.038435       0.061867

                          2       1    1px               0.041259       0.026506
                          2       1    1py               0.041259       0.026506
                          2       1    1pz               0.041259       0.026506

                          3       1    1px               0.072477       0.053604
                          3       1    1py               0.072477       0.053604
                          3       1    1pz               0.072477       0.053604

                          4       1    1s                0.077123       0.104304

                          5       1    1dx2              0.084777       0.021923
                          5       1    1dxy              0.084777       0.037972
                          5       1    1dxz              0.084777       0.037972
                          5       1    1dy2              0.084777       0.021923
                          5       1    1dyz              0.084777       0.037972
                          5       1    1dz2              0.084777       0.021923

                          6       1    1fx3              0.104277       0.009097
                          6       1    1fx2y             0.104277       0.020341
                          6       1    1fx2z             0.104277       0.020341
                          6       1    1fxy2             0.104277       0.020341
                          6       1    1fxyz             0.104277       0.035231
                          6       1    1fxz2             0.104277       0.020341
                          6       1    1fy3              0.104277       0.009097
                          6       1    1fy2z             0.104277       0.020341
                          6       1    1fyz2             0.104277       0.020341
                          6       1    1fz3              0.104277       0.009097

                          7       1    1s                0.123443       0.148426

                          8       1    1gx4              0.130959       0.004155
                          8       1    1gx3y             0.130959       0.010993
                          8       1    1gx3z             0.130959       0.010993
                          8       1    1gx2y2            0.130959       0.014192
                          8       1    1gx2yz            0.130959       0.024581
                          8       1    1gx2z2            0.130959       0.014192
                          8       1    1gxy3             0.130959       0.010993
                          8       1    1gxy2z            0.130959       0.024581
                          8       1    1gxyz2            0.130959       0.024581
                          8       1    1gxz3             0.130959       0.010993
                          8       1    1gy4              0.130959       0.004155
                          8       1    1gy3z             0.130959       0.010993
                          8       1    1gy2z2            0.130959       0.014192
                          8       1    1gyz3             0.130959       0.010993
                          8       1    1gz4              0.130959       0.004155

                          9       1    1px               0.154720       0.138316
                          9       1    1py               0.154720       0.138316
                          9       1    1pz               0.154720       0.138316

                         10       1    1fx3              0.174575       0.029001
                         10       1    1fx2y             0.174575       0.064848
                         10       1    1fx2z             0.174575       0.064848
                         10       1    1fxy2             0.174575       0.064848
                         10       1    1fxyz             0.174575       0.112321
                         10       1    1fxz2             0.174575       0.064848
                         10       1    1fy3              0.174575       0.029001
                         10       1    1fy2z             0.174575       0.064848
                         10       1    1fyz2             0.174575       0.064848
                         10       1    1fz3              0.174575       0.029001

                         11       1    1dx2              0.184720       0.085666
                         11       1    1dxy              0.184720       0.148378
                         11       1    1dxz              0.184720       0.148378
                         11       1    1dy2              0.184720       0.085666
                         11       1    1dyz              0.184720       0.148378
                         11       1    1dz2              0.184720       0.085666

                         12       1    1s                0.275153       0.270764

                         13       1    1px               0.326559       0.351878
                         13       1    1py               0.326559       0.351878
                         13       1    1pz               0.326559       0.351878

                         14       1    1fx3              0.334225       0.125038
                         14       1    1fx2y             0.334225       0.279593
                         14       1    1fx2z             0.334225       0.279593
                         14       1    1fxy2             0.334225       0.279593
                         14       1    1fxyz             0.334225       0.484270
                         14       1    1fxz2             0.334225       0.279593
                         14       1    1fy3              0.334225       0.125038
                         14       1    1fy2z             0.334225       0.279593
                         14       1    1fyz2             0.334225       0.279593
                         14       1    1fz3              0.334225       0.125038

                         15       1    1dx2              0.392816       0.320805
                         15       1    1dxy              0.392816       0.555650
                         15       1    1dxz              0.392816       0.555650
                         15       1    1dy2              0.392816       0.320805
                         15       1    1dyz              0.392816       0.555650
                         15       1    1dz2              0.392816       0.320805

                         16       1    1dx2              0.572001       0.619233
                         16       1    1dxy              0.572001       1.072542
                         16       1    1dxz              0.572001       1.072542
                         16       1    1dy2              0.572001       0.619233
                         16       1    1dyz              0.572001       1.072542
                         16       1    1dz2              0.572001       0.619233

                         17       1    1fx3              0.644990       0.548844
                         17       1    1fx2y             0.644990       1.227252
                         17       1    1fx2z             0.644990       1.227252
                         17       1    1fxy2             0.644990       1.227252
                         17       1    1fxyz             0.644990       2.125662
                         17       1    1fxz2             0.644990       1.227252
                         17       1    1fy3              0.644990       0.548844
                         17       1    1fy2z             0.644990       1.227252
                         17       1    1fyz2             0.644990       1.227252
                         17       1    1fz3              0.644990       0.548844

                         18       1    1gx4              0.717219       0.446147
                         18       1    1gx3y             0.717219       1.180394
                         18       1    1gx3z             0.717219       1.180394
                         18       1    1gx2y2            0.717219       1.523882
                         18       1    1gx2yz            0.717219       2.639440
                         18       1    1gx2z2            0.717219       1.523882
                         18       1    1gxy3             0.717219       1.180394
                         18       1    1gxy2z            0.717219       2.639440
                         18       1    1gxyz2            0.717219       2.639440
                         18       1    1gxz3             0.717219       1.180394
                         18       1    1gy4              0.717219       0.446147
                         18       1    1gy3z             0.717219       1.180394
                         18       1    1gy2z2            0.717219       1.523882
                         18       1    1gyz3             0.717219       1.180394
                         18       1    1gz4              0.717219       0.446147

                         19       1    1s                0.790449       0.597469

                         20       1    1px               0.806848       1.090008
                         20       1    1py               0.806848       1.090008
                         20       1    1pz               0.806848       1.090008

                         21       1    1dx2              1.488380       3.301100
                         21       1    1dxy              1.488380       5.717673
                         21       1    1dxz              1.488380       5.717673
                         21       1    1dy2              1.488380       3.301100
                         21       1    1dyz              1.488380       5.717673
                         21       1    1dz2              1.488380       3.301100

                         22       1    1px               1.518220       2.402196
                         22       1    1py               1.518220       2.402196
                         22       1    1pz               1.518220       2.402196

                         23       1    1fx3              1.543470       3.909087
                         23       1    1fx2y             1.543470       8.740985
                         23       1    1fx2z             1.543470       8.740985
                         23       1    1fxy2             1.543470       8.740985
                         23       1    1fxyz             1.543470      15.139830
                         23       1    1fxz2             1.543470       8.740985
                         23       1    1fy3              1.543470       3.909087
                         23       1    1fy2z             1.543470       8.740985
                         23       1    1fyz2             1.543470       8.740985
                         23       1    1fz3              1.543470       3.909087

                         24       1    1s                1.707810       1.064731

                         25       1    1gx4              1.764550       5.304920
                         25       1    1gx3y             1.764550      14.035499
                         25       1    1gx3z             1.764550      14.035499
                         25       1    1gx2y2            1.764550      18.119751
                         25       1    1gx2yz            1.764550      31.384330
                         25       1    1gx2z2            1.764550      18.119751
                         25       1    1gxy3             1.764550      14.035499
                         25       1    1gxy2z            1.764550      31.384330
                         25       1    1gxyz2            1.764550      31.384330
                         25       1    1gxz3             1.764550      14.035499
                         25       1    1gy4              1.764550       5.304920
                         25       1    1gy3z             1.764550      14.035499
                         25       1    1gy2z2            1.764550      18.119751
                         25       1    1gyz3             1.764550      14.035499
                         25       1    1gz4              1.764550       5.304920

                         26       1    1dx2              3.171490      12.405673
                         26       1    1dxy              3.171490      21.487255
                         26       1    1dxz              3.171490      21.487255
                         26       1    1dy2              3.171490      12.405673
                         26       1    1dyz              3.171490      21.487255
                         26       1    1dz2              3.171490      12.405673

                         27       1    1px               3.498730       6.820687
                         27       1    1py               3.498730       6.820687
                         27       1    1pz               3.498730       6.820687

                         28       1    1fx3              4.609120      45.824210
                         28       1    1fx2y             4.609120     102.466048
                         28       1    1fx2z             4.609120     102.466048
                         28       1    1fxy2             4.609120     102.466048
                         28       1    1fxyz             4.609120     177.476401
                         28       1    1fxz2             4.609120     102.466048
                         28       1    1fy3              4.609120      45.824210
                         28       1    1fy2z             4.609120     102.466048
                         28       1    1fyz2             4.609120     102.466048
                         28       1    1fz3              4.609120      45.824210

                         29       1    1s                4.993410       2.380718

                         30       1    1px               7.176800      16.743785
                         30       1    1py               7.176800      16.743785
                         30       1    1pz               7.176800      16.743785

                         31       1    1dx2              9.113940      78.685597
                         31       1    1dxy              9.113940     136.287452
                         31       1    1dxz              9.113940     136.287452
                         31       1    1dy2              9.113940      78.685597
                         31       1    1dyz              9.113940     136.287452
                         31       1    1dz2              9.113940      78.685597

                         32       1    1s               12.362800       4.698916

                         33       1    1dx2             29.921200     630.046667
                         33       1    1dxy             29.921200    1091.272839
                         33       1    1dxz             29.921200    1091.272839
                         33       1    1dy2             29.921200     630.046667
                         33       1    1dyz             29.921200    1091.272839
                         33       1    1dz2             29.921200     630.046667

                         34       1    1s               31.888200       9.563846

                         35       1    1px              58.640200     231.304665
                         35       1    1py              58.640200     231.304665
                         35       1    1pz              58.640200     231.304665

                         36       1    1s               82.306500      19.475369

                         37       1    1s              247.482000      44.470069

       Atomic covalent radius [Angstrom]:                                  1.360

       Atomic van der Waals radius [Angstrom]:                             1.730

     The atoms of this atomic kind are PAW atoms (GAPW):
       Hard Gaussian function radius:                                      1.512
       Rho0 radius:                                                        1.512
       Maximum GTO radius used for PAW projector construction:            24.566

     GAPW Soft Basis Set                                        aug-cc-pVTZ_soft

       Number of orbital shell sets:                                           8
       Number of orbital shells:                                              16
       Number of primitive Cartesian functions:                               18
       Number of Cartesian basis functions:                                   59
       Number of spherical basis functions:                                   50
       Norm type:                                                              2

       Normalised Cartesian orbitals:

                        Set   Shell   Orbital            Exponent    Coefficient

                          1       1    1px               0.009000       0.003951
                          1       1    1py               0.009000       0.003951
                          1       1    1pz               0.009000       0.003951

                          2       1    1s                0.012000       0.025840

                          3       1    1px               3.363000       2.480773
                                                         1.310000       0.795438
                                                         0.491100       0.089588
                                                         0.236400      -0.001028
                                                         0.087330       0.000426
                                                         0.032370      -0.000031
                          3       1    1py               3.363000       2.480773
                                                         1.310000       0.795438
                                                         0.491100       0.089588
                                                         0.236400      -0.001028
                                                         0.087330       0.000426
                                                         0.032370      -0.000031
                          3       1    1pz               3.363000       2.480773
                                                         1.310000       0.795438
                                                         0.491100       0.089588
                                                         0.236400      -0.001028
                                                         0.087330       0.000426
                                                         0.032370      -0.000031

                          3       2    2px               3.363000       0.000000
                                                         1.310000       0.000000
                                                         0.491100       0.000000
                                                         0.236400       0.000000
                                                         0.087330       0.067670
                                                         0.032370       0.000000
                          3       2    2py               3.363000       0.000000
                                                         1.310000       0.000000
                                                         0.491100       0.000000
                                                         0.236400       0.000000
                                                         0.087330       0.067670
                                                         0.032370       0.000000
                          3       2    2pz               3.363000       0.000000
                                                         1.310000       0.000000
                                                         0.491100       0.000000
                                                         0.236400       0.000000
                                                         0.087330       0.067670
                                                         0.032370       0.000000

                          3       3    3px               3.363000      -0.415439
                                                         1.310000      -0.140725
                                                         0.491100      -0.022024
                                                         0.236400       0.041599
                                                         0.087330       0.038349
                                                         0.032370       0.007753
                          3       3    3py               3.363000      -0.415439
                                                         1.310000      -0.140725
                                                         0.491100      -0.022024
                                                         0.236400       0.041599
                                                         0.087330       0.038349
                                                         0.032370       0.007753
                          3       3    3pz               3.363000      -0.415439
                                                         1.310000      -0.140725
                                                         0.491100      -0.022024
                                                         0.236400       0.041599
                                                         0.087330       0.038349
                                                         0.032370       0.007753

                          3       4    4px               3.363000       0.000000
                                                         1.310000       0.000000
                                                         0.491100       0.000000
                                                         0.236400       0.000000
                                                         0.087330       0.000000
                                                         0.032370       0.019571
                          3       4    4py               3.363000       0.000000
                                                         1.310000       0.000000
                                                         0.491100       0.000000
                                                         0.236400       0.000000
                                                         0.087330       0.000000
                                                         0.032370       0.019571
                          3       4    4pz               3.363000       0.000000
                                                         1.310000       0.000000
                                                         0.491100       0.000000
                                                         0.236400       0.000000
                                                         0.087330       0.000000
                                                         0.032370       0.019571

                          4       1    1s                1.826000      -0.004941
                                                         0.741700       0.001174
                                                         0.145700      -0.000141
                                                         0.076120       0.000073
                                                         0.033100      -0.000011

                          4       2    2s                1.826000       0.649288
                                                         0.741700       0.211913
                                                         0.145700       0.003558
                                                         0.076120      -0.001233
                                                         0.033100       0.000153

                          4       3    3s                1.826000       0.000000
                                                         0.741700       0.000000
                                                         0.145700       0.168076
                                                         0.076120       0.000000
                                                         0.033100       0.000000

                          4       4    4s                1.826000      -0.169153
                                                         0.741700      -0.123987
                                                         0.145700       0.043667
                                                         0.076120       0.056522
                                                         0.033100       0.018025

                          4       5    5s                1.826000       0.000000
                                                         0.741700       0.000000
                                                         0.145700       0.000000
                                                         0.076120       0.000000
                                                         0.033100       0.055307

                          5       1    1dx2              0.044400       0.007069
                          5       1    1dxy              0.044400       0.012243
                          5       1    1dxz              0.044400       0.012243
                          5       1    1dy2              0.044400       0.007069
                          5       1    1dyz              0.044400       0.012243
                          5       1    1dz2              0.044400       0.007069

                          6       1    1fx3              0.086500       0.005974
                          6       1    1fx2y             0.086500       0.013358
                          6       1    1fx2z             0.086500       0.013358
                          6       1    1fxy2             0.086500       0.013358
                          6       1    1fxyz             0.086500       0.023136
                          6       1    1fxz2             0.086500       0.013358
                          6       1    1fy3              0.086500       0.005974
                          6       1    1fy2z             0.086500       0.013358
                          6       1    1fyz2             0.086500       0.013358
                          6       1    1fz3              0.086500       0.005974

                          7       1    1dx2              0.299800       0.199924
                                                         0.128500       0.000000
                          7       1    1dxy              0.299800       0.346278
                                                         0.128500       0.000000
                          7       1    1dxz              0.299800       0.346278
                                                         0.128500       0.000000
                          7       1    1dy2              0.299800       0.199924
                                                         0.128500       0.000000
                          7       1    1dyz              0.299800       0.346278
                                                         0.128500       0.000000
                          7       1    1dz2              0.299800       0.199924
                                                         0.128500       0.000000

                          7       2    2dx2              0.299800       0.000000
                                                         0.128500       0.045393
                          7       2    2dxy              0.299800       0.000000
                                                         0.128500       0.078623
                          7       2    2dxz              0.299800       0.000000
                                                         0.128500       0.078623
                          7       2    2dy2              0.299800       0.000000
                                                         0.128500       0.045393
                          7       2    2dyz              0.299800       0.000000
                                                         0.128500       0.078623
                          7       2    2dz2              0.299800       0.000000
                                                         0.128500       0.045393

                          8       1    1fx3              0.241700       0.060301
                          8       1    1fx2y             0.241700       0.134838
                          8       1    1fx2z             0.241700       0.134838
                          8       1    1fxy2             0.241700       0.134838
                          8       1    1fxyz             0.241700       0.233546
                          8       1    1fxz2             0.241700       0.134838
                          8       1    1fy3              0.241700       0.060301
                          8       1    1fy2z             0.241700       0.134838
                          8       1    1fyz2             0.241700       0.134838
                          8       1    1fz3              0.241700       0.060301

     AE Potential information for                                            ALL

       Description:                                       All-electron potential
                                          Krack, Parrinello, PCCP 2, 2105 (2000)

       Gaussian exponent of the core charge distribution:              11.236029
       Electronic configuration (s p d ...):                           6   6   0

  2. Atomic kind: s                                     Number of atoms:       1

     Orbital Basis Set                                               aug-cc-pVTZ

       Number of orbital shell sets:                                           8
       Number of orbital shells:                                              16
       Number of primitive Cartesian functions:                               31
       Number of Cartesian basis functions:                                   59
       Number of spherical basis functions:                                   50
       Norm type:                                                              2

       Normalised Cartesian orbitals:

                        Set   Shell   Orbital            Exponent    Coefficient

                          1       1    1px               0.035100       0.021656
                          1       1    1py               0.035100       0.021656
                          1       1    1pz               0.035100       0.021656

                          2       1    1s                0.049700       0.075020

                          3       1    1dx2              0.101000       0.029783
                          3       1    1dxy              0.101000       0.051586
                          3       1    1dxz              0.101000       0.051586
                          3       1    1dy2              0.101000       0.029783
                          3       1    1dyz              0.101000       0.051586
                          3       1    1dz2              0.101000       0.029783

                          4       1    1px             574.400000       9.710615
                                                       135.800000      12.739798
                                                        43.190000      13.973617
                                                        15.870000      11.497714
                                                         6.208000       6.061822
                                                         2.483000       1.577000
                                                         0.868800       0.074001
                                                         0.322900      -0.001745
                                                         0.109800       0.000189
                          4       1    1py             574.400000       9.710615
                                                       135.800000      12.739798
                                                        43.190000      13.973617
                                                        15.870000      11.497714
                                                         6.208000       6.061822
                                                         2.483000       1.577000
                                                         0.868800       0.074001
                                                         0.322900      -0.001745
                                                         0.109800       0.000189
                          4       1    1pz             574.400000       9.710615
                                                       135.800000      12.739798
                                                        43.190000      13.973617
                                                        15.870000      11.497714
                                                         6.208000       6.061822
                                                         2.483000       1.577000
                                                         0.868800       0.074001
                                                         0.322900      -0.001745
                                                         0.109800       0.000189

                          4       2    2px             574.400000       0.000000
                                                       135.800000       0.000000
                                                        43.190000       0.000000
                                                        15.870000       0.000000
                                                         6.208000       0.000000
                                                         2.483000       0.000000
                                                         0.868800       1.195611
                                                         0.322900       0.000000
                                                         0.109800       0.000000
                          4       2    2py             574.400000       0.000000
                                                       135.800000       0.000000
                                                        43.190000       0.000000
                                                        15.870000       0.000000
                                                         6.208000       0.000000
                                                         2.483000       0.000000
                                                         0.868800       1.195611
                                                         0.322900       0.000000
                                                         0.109800       0.000000
                          4       2    2pz             574.400000       0.000000
                                                       135.800000       0.000000
                                                        43.190000       0.000000
                                                        15.870000       0.000000
                                                         6.208000       0.000000
                                                         2.483000       0.000000
                                                         0.868800       1.195611
                                                         0.322900       0.000000
                                                         0.109800       0.000000

                          4       3    3px             574.400000      -2.485542
                                                       135.800000      -3.263532
                                                        43.190000      -3.671694
                                                        15.870000      -3.093679
                                                         6.208000      -1.730561
                                                         2.483000      -0.430733
                                                         0.868800       0.272856
                                                         0.322900       0.197555
                                                         0.109800       0.033001
                          4       3    3py             574.400000      -2.485542
                                                       135.800000      -3.263532
                                                        43.190000      -3.671694
                                                        15.870000      -3.093679
                                                         6.208000      -1.730561
                                                         2.483000      -0.430733
                                                         0.868800       0.272856
                                                         0.322900       0.197555
                                                         0.109800       0.033001
                          4       3    3pz             574.400000      -2.485542
                                                       135.800000      -3.263532
                                                        43.190000      -3.671694
                                                        15.870000      -3.093679
                                                         6.208000      -1.730561
                                                         2.483000      -0.430733
                                                         0.868800       0.272856
                                                         0.322900       0.197555
                                                         0.109800       0.033001

                          4       4    4px             574.400000       0.000000
                                                       135.800000       0.000000
                                                        43.190000       0.000000
                                                        15.870000       0.000000
                                                         6.208000       0.000000
                                                         2.483000       0.000000
                                                         0.868800       0.000000
                                                         0.322900       0.000000
                                                         0.109800       0.090093
                          4       4    4py             574.400000       0.000000
                                                       135.800000       0.000000
                                                        43.190000       0.000000
                                                        15.870000       0.000000
                                                         6.208000       0.000000
                                                         2.483000       0.000000
                                                         0.868800       0.000000
                                                         0.322900       0.000000
                                                         0.109800       0.090093
                          4       4    4pz             574.400000       0.000000
                                                       135.800000       0.000000
                                                        43.190000       0.000000
                                                        15.870000       0.000000
                                                         6.208000       0.000000
                                                         2.483000       0.000000
                                                         0.868800       0.000000
                                                         0.322900       0.000000
                                                         0.109800       0.090093

                          5       1    1s           374100.000000       0.584471
                                                     56050.000000       1.092634
                                                     12760.000000       1.888412
                                                      3615.000000       3.054422
                                                      1183.000000       4.616580
                                                       428.800000       6.357788
                                                       167.800000       7.430780
                                                        69.470000       6.420754
                                                        29.840000       2.994663
                                                        12.720000       0.406611
                                                         5.244000       0.001089
                                                         2.219000       0.002136
                                                         0.776700      -0.000367
                                                         0.349000       0.000098
                                                         0.132200      -0.000013

                          5       2    2s           374100.000000      -0.161536
                                                     56050.000000      -0.301676
                                                     12760.000000      -0.523304
                                                      3615.000000      -0.848519
                                                      1183.000000      -1.306391
                                                       428.800000      -1.860594
                                                       167.800000      -2.392483
                                                        69.470000      -2.511395
                                                        29.840000      -1.775734
                                                        12.720000       0.039324
                                                         5.244000       1.275888
                                                         2.219000       0.702539
                                                         0.776700       0.040594
                                                         0.349000      -0.002971
                                                         0.132200       0.000354

                          5       3    3s           374100.000000       0.000000
                                                     56050.000000       0.000000
                                                     12760.000000       0.000000
                                                      3615.000000       0.000000
                                                      1183.000000       0.000000
                                                       428.800000       0.000000
                                                       167.800000       0.000000
                                                        69.470000       0.000000
                                                        29.840000       0.000000
                                                        12.720000       0.000000
                                                         5.244000       0.000000
                                                         2.219000       0.000000
[...]
 library.
 https://doi.org/10.1016/j.parco.2014.03.012

 M. Del Ben, J. Hutter, J. VandeVondele.
 J. Chem. Theory Comput. 9, 2654-2671 (2013).
 Electron Correlation in the Condensed Phase from a Resolution of Identity 
 Approach Based on the Gaussian and Plane Waves Scheme.
 https://doi.org/10.1021/ct4002202

 M. Del Ben, J. Hutter, J. VandeVondele.
 J. Chem. Theory Comput. 8, 4177-4188 (2012).
 Second-Order Moller-Plesset Perturbation Theory in the Condensed Phase: An 
 Efficient and Massively Parallel Gaussian and Plane Waves Approach.
 https://doi.org/10.1021/ct300531w

 M. Guidon, J. Hutter, J. VandeVondele.
 J. Chem. Theory Comput. 5, 3010-3021 (2009).
 Robust Periodic Hartree-Fock Exchange for Large-Scale Simulations Using 
 Gaussian Basis Sets.
 https://doi.org/10.1021/ct900494g

 M. Guidon, F. Schiffmann, J. Hutter, J. VandeVondele.
 J. Chem. Phys. 128, 214104 (2008).
 Ab initio molecular dynamics using hybrid density functionals.
 https://doi.org/10.1063/1.2931945

 L. Genovese, T. Deutsch, S. Goedecker.
 J. Chem. Phys. 127, 054704 (2007).
 Efficient and accurate three-dimensional Poisson solver for surface problems.
 https://doi.org/10.1063/1.2754685

 J. VandeVondele, J. Hutter.
 J. Chem. Phys. 127, 114105 (2007).
 Gaussian basis sets for accurate calculations on molecular systems in gas and 
 condensed phases.
 https://doi.org/10.1063/1.2770708

 L. Genovese, T. Deutsch, A. Neelov, S. Goedecker, G. Beylkin.
 J. Chem. Phys. 125, 074105 (2006).
 Efficient solution of Poisson's equation with free boundary conditions.
 https://doi.org/10.1063/1.2335442

 M. Frigo, S. G. Johnson.
 Proc. IEEE 93, 216-231 (2005).
 The design and implementation of FFTW3.
 https://doi.org/10.1109/JPROC.2004.840301

 M. Krack, M. Parrinello.
 Phys. Chem. Chem. Phys. 2, 2105-2112 (2000).
 All-electron ab-initio molecular dynamics.
 https://doi.org/10.1039/b001167n

 G. Lippert, J. Hutter, M. Parrinello.
 Theor. Chem. Acc. 103, 124-140 (1999).
 The Gaussian and augmented-plane-wave density functional method for ab initio 
 molecular dynamics simulations.
 https://doi.org/10.1007/s002140050523

 J. P. Perdew, K. Burke, M. Ernzerhof.
 Phys. Rev. Lett. 77, 3865-3868 (1996).
 Generalized gradient approximation made simple.
 https://doi.org/10.1103/PhysRevLett.77.3865


 -------------------------------------------------------------------------------
 -                                                                             -
 -                                T I M I N G                                  -
 -                                                                             -
 -------------------------------------------------------------------------------
 SUBROUTINE                       CALLS  ASD         SELF TIME        TOTAL TIME
                                MAXIMUM       AVERAGE  MAXIMUM  AVERAGE  MAXIMUM
 CP2K                                 1  1.0    0.045    0.071  286.726  286.726
 qs_energies                          1  2.0    0.001    0.001  285.189  285.408
 scf_env_do_scf                       1  3.0    0.000    0.000  279.843  279.844
 scf_env_do_scf_inner_loop           86  4.0    0.002    0.005  279.843  279.844
 qs_ks_build_kohn_sham_matrix        87  7.0    0.013    0.015  218.229  218.250
 qs_ks_update_qs_env                 86  5.0    0.001    0.001  216.762  216.782
 rebuild_ks_matrix                   86  6.0    0.000    0.000  216.755  216.775
 fft_wrap_pw1pw2                   1818  9.9    0.040    0.051  103.097  104.355
 fft_wrap_pw1pw2_250               1296 11.1    4.451    4.888   99.740  100.721
 fft3d_ps                          1818 11.9   40.837   45.043   82.949   84.104
 pw_poisson_solve                    87  8.0    1.541    1.688   75.038   75.076
 qs_vxc_create                       87  8.0    0.001    0.001   61.752   61.753
 xc_vxc_pw_create                    86  9.0    1.078    1.215   61.751   61.751
 ps_wavelet_solve                    87  9.0   39.136   43.527   49.953   50.303
 xc_pw_derive                       516 11.0    0.005    0.006   44.863   46.075
 mp_alltoall_d54                     87 10.0    7.031   38.922    7.031   38.922
 mp_alltoall_z22v                  1818 13.9   32.255   36.274   32.255   36.274
 qs_rho_update_rho_low               87  5.0    0.001    0.001   31.886   31.887
 calculate_rho_elec                  87  6.0    0.850    0.906   31.747   31.747
 xc_pw_divergence                    86 10.0    0.003    0.003   30.466   31.636
 xc_rho_set_and_dset_create          86 10.0    0.773    0.980   29.596   31.093
 gspace_mixing                       85  5.0    0.830    0.885   30.473   30.474
 hfx_ks_matrix                       87  8.0    0.003    0.004   26.782   26.873
 integrate_four_center               87  9.0    1.852    3.911   26.777   26.867
 x_to_yz                            951 13.1    6.935    7.448   22.314   23.216
 broyden_mixing                      85  6.0   22.595   23.011   23.089   23.163
 yz_to_x                            867 12.8    2.893    3.471   19.769   23.002
 density_rs2pw                       87  7.0    0.006    0.006   22.399   22.829
 sum_up_and_integrate                87  8.0    0.001    0.002   19.622   19.661
 mp_sync                            886  9.6   17.164   19.631   17.164   19.631
 integrate_v_rspace                  87  9.0    0.002    0.003   19.369   19.504
 potential_pw2rs                     87 10.0    0.045    0.050   16.755   16.876
 integrate_four_center_main          87 10.0    0.191    6.968    0.642   15.704
 prepare_gapw_den                    87  8.0    0.002    0.002   15.170   15.386
 integrate_four_center_bin         6857 11.0    0.451   12.832    0.451   12.832
 put_rho0_on_grid                    87  9.0    0.856    0.922   12.179   12.394
 transfer_pw2rs                     436 10.6    0.006    0.008   11.954   12.124
 transfer_rs2pw                     436  8.4    0.011    0.014   10.475   10.846
 mp_waitany                       11528 11.5    9.084   10.022    9.084   10.022
 mp_alltoall_d11v                  1584  9.4    5.615    9.750    5.615    9.750
 mp_sum_d                          2272  6.6    8.482    9.666    8.482    9.666
 grid_collocate_task_list            87  7.0    8.171    9.443    8.171    9.443
 transfer_pw2rs_250                 175 11.0    2.545    2.825    7.710    8.033
 xc_functional_eval                 430 10.9    0.001    0.002    6.383    7.624
 pbe_lda_eval                       430 11.9    6.383    7.622    6.383    7.622
 transfer_rs2pw_250                 175 10.0    2.748    3.009    7.172    7.495
 pw_scatter_p                       951 12.1    6.815    6.942    6.815    6.942
 mp_alltoall_d45                     88 10.0    3.530    6.930    3.530    6.930
 calculate_vxc_atom                  87  8.0    0.033    0.474    6.535    6.535
 pw_gather_p                        867 11.8    5.707    6.530    5.707    6.530
 gaVxcgb_GC                         172  9.0    0.124    5.944    0.124    5.944
 pw_derive                          777 11.3    5.010    5.340    5.010    5.340
 integrate_vhg0_rspace               87  8.0    0.134    0.194    5.315    5.339
 calc_screening_functions             1 10.0    3.211    3.360    4.980    5.161
 mp2_main                             1  3.0    0.000    0.000    4.464    4.683
 cp2k_distribution_to_z_slices       87  9.0    1.613    1.715    3.024    3.231
 pw_copy                           1300 10.6    2.966    3.139    2.966    3.139
 powell_optimize                1261950 11.0    3.085    3.136    3.085    3.136
 fft_wrap_pw1pw2_90                 174 10.5    0.128    0.169    2.680    3.104
 pw_poisson_set                      88  8.9    0.003    0.003    2.771    2.809
 mp2_gpw_main                         1  4.0    0.000    0.000    2.781    2.791
 calculate_rho_atom                 174  9.0    1.100    2.655    1.100    2.655
 rs_gather_matrices                  87 10.0    0.008    0.017    2.288    2.625
 grid_integrate_task_list            87 10.0    0.324    2.585    0.324    2.585
 rs_grid_zero                       437 11.2    2.276    2.349    2.276    2.349
 transfer_pw2rs_90                   87 12.0    0.466    0.540    1.812    2.272
 pw_axpy                            865  9.3    1.940    2.063    1.940    2.063
 calc_pair_dist_radii                 1 10.0    0.655    0.661    1.972    2.000
 pw_copy_to_array                   867 11.8    1.811    1.992    1.811    1.992
 transfer_pw2rs_30                   87 12.0    1.181    1.281    1.805    1.960
 rpa_ri_compute_en                    1  5.0    0.000    0.000    1.929    1.929
 rpa_num_int                          1  6.0    0.001    0.001    1.918    1.918
 mp_waitall_1                     26806 12.0    1.445    1.884    1.445    1.884
 mp_sum_dv                         2884 10.5    1.664    1.768    1.664    1.768
 transfer_rs2pw_90                   87  9.0    0.406    0.437    1.493    1.688
 pw_integral_ab_c1d_c1d_gs           87  9.0    1.276    1.288    1.404    1.539
 mp_sum_dm                          613  7.6    0.970    1.504    0.970    1.504
 compute_GW_self_energy             100  7.0    0.001    0.001    1.439    1.490
 compute_vec_Sigma_x_minus_vxc_       1  4.0    0.000    0.000    1.479    1.479
 pw_copy_from_array                 951 12.1    1.169    1.424    1.169    1.424
 transfer_rs2pw_30                   87  9.0    0.678    0.713    1.366    1.400
 compute_GW_self_energy_deep        100  8.0    0.870    0.918    1.335    1.386
 pw_poisson_rebuild                  87  9.0    0.000    0.000    1.171    1.197
 ps_wavelet_create                    1 10.0    0.000    0.000    1.171    1.197
 RS_z_slice_distribution              1 11.0    0.995    1.101    1.171    1.197
 qs_scf_new_mos                      86  5.0    0.001    0.001    1.147    1.152
 mp_sendrecv_dv                    8178 10.0    0.980    1.019    0.980    1.019
 cp_fm_syevd                         91  6.9    0.001    0.001    0.939    0.942
 mp_isend_dv                      10838 11.7    0.564    0.925    0.564    0.925
 pw_zero                            518 10.3    0.831    0.907    0.831    0.907
 cp_fm_redistribute_end              91  7.9    0.456    0.874    0.461    0.877
 mp_irecv_dm3                      3144 11.5    0.424    0.863    0.424    0.863
 Vh_1c_gg_integrals                  87  8.0    0.021    0.529    0.685    0.855
 mp2_ri_gpw_compute_in                1  5.0    0.000    0.000    0.834    0.834
 cp_fm_syevd_base                    91  7.9    0.413    0.829    0.413    0.829
 mp2_ri_gpw_compute_in_loop           1  6.0    0.000    0.000    0.828    0.828
 contract_B_L                         4  7.0    0.001    0.002    0.774    0.799
 eigensolver_symm                    87  6.0    0.003    0.003    0.791    0.793
 dbt_total                            8  8.0    0.000    0.000    0.711    0.711
 dbt_contract                         4  9.0    0.001    0.001    0.417    0.704
 create_qs_kind_set                   1  2.0    0.000    0.000    0.693    0.694
 read_qs_kind                         2  3.0    0.373    0.385    0.693    0.694
 transfer_pw2rs_10                   87 12.0    0.299    0.313    0.620    0.677
 mp_isendrecv_dv                  16356 12.0    0.303    0.675    0.303    0.675
 init_scf_run                         1  3.0    0.000    0.000    0.624    0.625
 scf_env_initial_rho_setup            1  4.0    0.000    0.000    0.611    0.612
 parallel_gemm_fm                   385  8.4    0.001    0.001    0.591    0.602
 parallel_gemm_fm_gemm              385  9.4    0.001    0.001    0.591    0.601
 cp_fm_gemm                         385 10.4    0.590    0.601    0.590    0.601
 mp_isend_dm3                      3144 11.5    0.314    0.600    0.314    0.600
 fft_wrap_pw1pw2_30                 174 10.5    0.021    0.025    0.500    0.520
 qs_init_subsys                       1  2.0    0.009    0.010    0.515    0.516
 qs_env_setup                         1  3.0    0.000    0.000    0.489    0.492
 qs_env_rebuild_pw_env                2  3.5    0.000    0.000    0.488    0.491
 pw_env_rebuild                       1  5.0    0.001    0.001    0.487    0.490
 scale_and_distribute               174 10.0    0.433    0.465    0.433    0.465
 transfer_rs2pw_10                   87  9.0    0.141    0.150    0.433    0.453
 mp_max_i                           565  3.1    0.266    0.424    0.266    0.424
 pw_grid_setup                        4  6.0    0.000    0.000    0.418    0.420
 pw_grid_setup_internal               4  7.0    0.010    0.013    0.418    0.420
 mp_cart_create                     439 10.2    0.384    0.416    0.385    0.417
 dbt_pgrid_create_expert             84 10.8    0.000    0.000    0.365    0.397
 mp_sum_i                            19  9.5    0.219    0.393    0.219    0.393
 mp2_main_alloc_hfx                   1  4.0    0.174    0.392    0.174    0.392
 restraint_control                    1  2.0    0.000    0.000    0.219    0.392
 calculate_rho0_atom                174  9.0    0.337    0.350    0.337    0.350
 dbt_copy                            12 10.1    0.000    0.000    0.055    0.335
 dbt_remap                            8 10.0    0.001    0.002    0.332    0.332
 dbt_reshape                          8 11.6    0.004    0.004    0.049    0.328
 parser_read_line                 79726  4.0    0.027    0.029    0.320    0.324
 dbt_communicate_buffer               8 12.6    0.001    0.001    0.043    0.323
 mp_waitall_2                        50 15.7    0.043    0.323    0.043    0.323
 pw_grid_sort                         4  8.0    0.222    0.226    0.317    0.321
 dbt_nd_mp_comm                       8 11.0    0.000    0.000    0.314    0.321
 parser_read_line_low                89  5.0    0.021    0.132    0.293    0.298
 mp_sum_l                          1041  6.4    0.219    0.289    0.219    0.289
 broadcast_input_information         89  6.0    0.063    0.074    0.271    0.283
 pw_scale                           345  9.5    0.228    0.281    0.228    0.281
 integrate_four_center_load          87 10.0    0.000    0.001    0.196    0.263
 hfx_load_balance                     1 11.0    0.000    0.000    0.195    0.263
 hfx_load_balance_range               1 12.0    0.000    0.001    0.191    0.259
 start_bse_calculation                1  7.0    0.000    0.000    0.239    0.239
 integrate_four_center_getP          87 10.0    0.008    0.009    0.220    0.223
 calculate_dm_sparse                 86  6.0    0.001    0.001    0.214    0.220
 diagonalize_A                        1  8.0    0.000    0.000    0.219    0.219
 cp_dbcsr_plus_fm_fm_t               86  7.0    0.001    0.001    0.213    0.218
 rpa_num_int_RPA_matrix_operati     100  7.0    0.001    0.002    0.185    0.185
 integrate_four_center_dist_KS       87 10.0    0.008    0.010    0.165    0.167
 dbcsr_multiply_generic             131  8.1    0.006    0.006    0.161    0.167
 fft_wrap_pw1pw2_10                 174 10.5    0.005    0.005    0.136    0.160
 copy_dbcsr_to_fm                   117  6.5    0.002    0.002    0.146    0.151
 mixing_init                          1  5.0    0.145    0.148    0.148    0.149
 dbcsr_complete_redistribute        293  8.4    0.012    0.018    0.144    0.148
 qs_energies_init_hamiltonians        1  3.0    0.000    0.000    0.146    0.146
 build_core_hamiltonian_matrix        1  4.0    0.000    0.000    0.140    0.140
 mp_bcast_i_src                     356  7.0    0.110    0.139    0.110    0.139
 calculate_rho_atom_coeff            87  6.0    0.012    0.038    0.139    0.139
 overlap_condnum                      1  5.0    0.000    0.000    0.138    0.139
 xc_pw_smooth                        86 10.0    0.000    0.000    0.091    0.123
 mp_bcast_am_src                     89  7.0    0.083    0.106    0.094    0.123
 calc_mat_Q                         100  8.0    0.000    0.000    0.119    0.122
 contract_S_to_Q                    100  9.0    0.000    0.000    0.118    0.121
 scf_post_calculation_gpw             1  3.0    0.000    0.000    0.111    0.111
 write_available_results              1  4.0    0.000    0.000    0.111    0.111
 write_mo_free_results                1  5.0    0.013    0.014    0.110    0.111
 vxc_of_r_new                       344  9.0    0.000    0.016    0.002    0.106
 arnoldi_conjugate_gradient           5  6.0    0.003    0.003    0.102    0.102
 sort_shells                          4  9.0    0.095    0.097    0.095    0.097
 cp_fm_cholesky_invert              101  8.0    0.093    0.097    0.093    0.097
 update_ks_atom                      87  8.0    0.008    0.027    0.068    0.091
 copy_fm_to_dbcsr                   176  8.1    0.001    0.001    0.088    0.091
 dbcsr_desymmetrize_deep            119  7.4    0.003    0.004    0.087    0.091
 mp_bcast_dm                        348  9.0    0.060    0.083    0.060    0.083
 mp_irecv_dv                      10891 11.7    0.043    0.083    0.043    0.083
 make_m2s                           262  9.1    0.004    0.004    0.078    0.082
 mp_alltoall_i22                    412  9.1    0.071    0.079    0.071    0.079
 cp_fm_redistribute_start            91  7.9    0.051    0.056    0.065    0.073
 mp2_eri_3c_integrate                 1  7.0    0.001    0.001    0.029    0.072
 integrate_set_3c                   576  8.0    0.026    0.065    0.029    0.071
 dbcsr_sym_matrix_vector_mult       406  7.0    0.006    0.007    0.044    0.062
 compute_Erpa_by_freq_int           100  8.0    0.001    0.001    0.060    0.060
 cp_fm_to_fm_submat_general         112 10.1    0.049    0.060    0.049    0.060
 cp_fm_cholesky_decompose           102  9.0    0.058    0.059    0.058    0.059
 multiply_cannon                    131  9.1    0.010    0.010    0.053    0.058
 offload_free_buffer                 95  8.5    0.037    0.055    0.037    0.055
 compute_max_radius                   1  6.0    0.052    0.054    0.052    0.054
 pw_grid_assign                       4  8.0    0.050    0.052    0.051    0.053
 hirshfeld_integration                1  6.0    0.001    0.005    0.051    0.051
 dbcsr_finalize                    2289 10.7    0.008    0.015    0.028    0.051
 dbt_tas_multiply                     8 11.5    0.000    0.000    0.047    0.047
 dbt_tas_total                        8 12.5    0.001    0.002    0.047    0.047
 calculate_hirshfeld_normalizat       1  6.0    0.001    0.004    0.045    0.046
 mp_alltoall_i11v                   998  9.3    0.040    0.040    0.040    0.040
 make_images                        262 10.1    0.008    0.009    0.038    0.040
 dbcsr_add_d                        683  7.2    0.001    0.001    0.005    0.040
 dbcsr_add_anytype                  683  8.2    0.001    0.005    0.005    0.039
 rs_scatter_matrices                 87  7.0    0.001    0.002    0.036    0.037
 postprocess_bse                      1  9.0    0.000    0.000    0.035    0.036
 multiply_cannon_loop               131 10.1    0.007    0.007    0.031    0.036
 hybrid_alltoall_any                381 10.9    0.004    0.005    0.030    0.033
 dbcsr_create_new                  4965  9.6    0.015    0.028    0.019    0.032
 mp_comm_split_direct                48 14.5    0.019    0.029    0.019    0.029
 cp_fm_symm                          87  7.0    0.027    0.029    0.027    0.029
 -------------------------------------------------------------------------------

 The number of warnings for this run is : 1
 
 -------------------------------------------------------------------------------
  **** **** ******  **  PROGRAM ENDED AT                 2025-04-08 04:00:19.215
 ***** ** ***  *** **   PROGRAM RAN ON                              i05r09c06s11
 **    ****   ******    PROGRAM RAN BY                                   di38fab
 ***** **    ** ** **   PROGRAM PROCESS ID                               3505540
  **** **  *******  **  PROGRAM STOPPED IN /hppfs/scratch/04/di38fab/05_MOL/W4-1
                                           1+ALK/mgs/aug-cc-pVTZ/GW+BSE
