 DBCSR| CPU Multiplication driver                                           XSMM (U)
 DBCSR| Multrec recursion limit                                              512 (U)
 DBCSR| Multiplication stack size                                           1000 (D)
 DBCSR| Maximum elements for images                                    UNLIMITED (U)
 DBCSR| Multiplicative factor virtual images                                   1 (U)
 DBCSR| Use multiplication densification                                       T (D)
 DBCSR| Multiplication size stacks                                             3 (U)
 DBCSR| Use memory pool for CPU allocation                                     F (U)
 DBCSR| Number of 3D layers                                               SINGLE (U)
 DBCSR| Use MPI memory allocation                                              F (U)
 DBCSR| Use RMA algorithm                                                      F (U)
 DBCSR| Use Communication thread                                               T (U)
 DBCSR| Communication thread load                                             60 (D)
 DBCSR| MPI: My process id                                                     0
 DBCSR| MPI: Number of processes                                              80
 DBCSR| OMP: Current number of threads                                         8
 DBCSR| OMP: Max number of threads                                             8
 DBCSR| Split modifier for TAS multiplication algorithm                  1.0E+00 (U)


  **** **** ******  **  PROGRAM STARTED AT               2025-06-04 14:26:02.163
 ***** ** ***  *** **   PROGRAM STARTED ON                              n2cn0202
 **    ****   ******    PROGRAM STARTED BY                              metdyn02
 ***** **    ** ** **   PROGRAM PROCESS ID                               2404963
  **** **  *******  **  PROGRAM STARTED IN /scratch/hpc-prf-metdyn/metdyn02_Remi
                                           /10_MOL/05_MOL/aUKBqsEOTmq69kFe5R_nOg
                                           /5k_set_final_qzvp/LIVZIA/SZVSR/TDDFT
                                           /RILIM

 CP2K| version string:                 CP2K version 2025.1 (Development Version)
 CP2K| source code revision number:                                  git:32ddf85
 CP2K| cp2kflags: omp libint fftw3 libxc libgrpp elpa parallel scalapack mpi_f08
 CP2K|             cosma xsmm plumed2 spglib libvori libbqb libvdwxc hdf5
 CP2K| is freely available from                            https://www.cp2k.org/
 CP2K| Program compiled at                         Mon May 19 11:32:37 CEST 2025
 CP2K| Program compiled on                                              n2login1
 CP2K| Program compiled for                                                local
 CP2K| Data directory path    /opt/software/pc2/EB-SW/software/CP2K/2024.1-foss-
 CP2K| Input file name                                                    GW.inp

 GLOBAL| Force Environment number                                              1
 GLOBAL| Basis set file name            /scratch/hpc-prf-metdyn/metdyn02_Remi/BA
 GLOBAL| Potential file name            /pc2/groups/hpc-prf-metdyn/metdyn02_Remi
 GLOBAL| MM Potential file name                                     MM_POTENTIAL
 GLOBAL| Coordinate file name                                      __STD_INPUT__
 GLOBAL| Method name                                                        CP2K
 GLOBAL| Project name                                                       MoS2
 GLOBAL| Run type                                                         ENERGY
 GLOBAL| FFT library                                                       FFTW3
 GLOBAL| Diagonalization library                                            ELPA
 GLOBAL| Cholesky decomposition library                                ScaLAPACK
 GLOBAL| DGEMM library                                                      BLAS
 GLOBAL| Minimum number of eigenvectors for ELPA usage                        16
 GLOBAL| Orthonormality check for eigenvectors                          DISABLED
 GLOBAL| Matrix multiplication library                                     COSMA
 GLOBAL| All-to-all communication in single precision                          F
 GLOBAL| FFTs using library dependent lengths                                  F
 GLOBAL| Grid backend                                                       AUTO
 GLOBAL| Global print level                                               MEDIUM
 GLOBAL| MPI I/O enabled                                                       T
 GLOBAL| Total number of message passing processes                            80
 GLOBAL| Number of threads for this process                                    8
 GLOBAL| This output is from process                                           0
 GLOBAL| OpenMP stack size per thread (OMP_STACKSIZE)                    default
 GLOBAL| CPU model name                          AMD EPYC 7763 64-Core Processor
 GLOBAL| CPUID                                                              1002

 MEMORY| system memory details [Kb]
 MEMORY|                        rank 0           min           max       average
 MEMORY| MemTotal            263897600     263897556     263897640     263897592
 MEMORY| MemFree             246425284     245110252     251311212     248525244
 MEMORY| Buffers                127720         20420        127720         57060
 MEMORY| Cached               11836104       7860976      12992088      10342570
 MEMORY| Slab                  2120712       1406764       2702628       1753248
 MEMORY| SReclaimable           630364        245920        978976        391262
 MEMORY| MemLikelyFree       259019472     258957660     259633000     259316137


 *** Fundamental physical constants (SI units) ***

 *** Literature: B. J. Mohr and B. N. Taylor,
 ***             CODATA recommended values of the fundamental physical
 ***             constants: 2006, Web Version 5.1
 ***             http://physics.nist.gov/constants

 Speed of light in vacuum [m/s]                             2.99792458000000E+08
 Magnetic constant or permeability of vacuum [N/A**2]       1.25663706143592E-06
 Electric constant or permittivity of vacuum [F/m]          8.85418781762039E-12
 Planck constant (h) [J*s]                                  6.62606896000000E-34
 Planck constant (h-bar) [J*s]                              1.05457162825177E-34
 Elementary charge [C]                                      1.60217648700000E-19
 Electron mass [kg]                                         9.10938215000000E-31
 Electron g factor [ ]                                     -2.00231930436220E+00
 Proton mass [kg]                                           1.67262163700000E-27
 Fine-structure constant                                    7.29735253760000E-03
 Rydberg constant [1/m]                                     1.09737315685270E+07
 Avogadro constant [1/mol]                                  6.02214179000000E+23
 Boltzmann constant [J/K]                                   1.38065040000000E-23
 Atomic mass unit [kg]                                      1.66053878200000E-27
 Bohr radius [m]                                            5.29177208590000E-11

 *** Conversion factors ***

 [u] -> [a.u.]                                              1.82288848426455E+03
 [Angstrom] -> [Bohr] = [a.u.]                              1.88972613288564E+00
 [a.u.] = [Bohr] -> [Angstrom]                              5.29177208590000E-01
 [a.u.] -> [s]                                              2.41888432650478E-17
 [a.u.] -> [fs]                                             2.41888432650478E-02
 [a.u.] -> [J]                                              4.35974393937059E-18
 [a.u.] -> [N]                                              8.23872205491840E-08
 [a.u.] -> [K]                                              3.15774647902944E+05
 [a.u.] -> [kJ/mol]                                         2.62549961709828E+03
 [a.u.] -> [kcal/mol]                                       6.27509468713739E+02
 [a.u.] -> [Pa]                                             2.94210107994716E+13
 [a.u.] -> [bar]                                            2.94210107994716E+08
 [a.u.] -> [atm]                                            2.90362800883016E+08
 [a.u.] -> [eV]                                             2.72113838565563E+01
 [a.u.] -> [Hz]                                             6.57968392072181E+15
 [a.u.] -> [1/cm] (wave numbers)                            2.19474631370540E+05
 [a.u./Bohr**2] -> [1/cm]                                   5.14048714338585E+03
 

 CELL_TOP| Volume [angstrom^3]:                                     27000.000000
 CELL_TOP| Vector a [angstrom    30.000     0.000     0.000   |a| =    30.000000
 CELL_TOP| Vector b [angstrom     0.000    30.000     0.000   |b| =    30.000000
 CELL_TOP| Vector c [angstrom     0.000     0.000    30.000   |c| =    30.000000
 CELL_TOP| Angle (b,c), alpha [degree]:                                90.000000
 CELL_TOP| Angle (a,c), beta  [degree]:                                90.000000
 CELL_TOP| Angle (a,b), gamma [degree]:                                90.000000
 CELL_TOP| Numerically orthorhombic:                                         YES
 CELL_TOP| Periodicity                                                      NONE

 GENERATE|  Preliminary Number of Bonds generated:                             0
 GENERATE|  Achieved consistency in connectivity generation.

 CELL| Volume [angstrom^3]:                                         27000.000000
 CELL| Vector a [angstrom]:      30.000     0.000     0.000   |a| =    30.000000
 CELL| Vector b [angstrom]:       0.000    30.000     0.000   |b| =    30.000000
 CELL| Vector c [angstrom]:       0.000     0.000    30.000   |c| =    30.000000
 CELL| Angle (b,c), alpha [degree]:                                    90.000000
 CELL| Angle (a,c), beta  [degree]:                                    90.000000
 CELL| Angle (a,b), gamma [degree]:                                    90.000000
 CELL| Numerically orthorhombic:                                             YES
 CELL| Periodicity                                                          NONE

 CELL_REF| Volume [angstrom^3]:                                     27000.000000
 CELL_REF| Vector a [angstrom    30.000     0.000     0.000   |a| =    30.000000
 CELL_REF| Vector b [angstrom     0.000    30.000     0.000   |b| =    30.000000
 CELL_REF| Vector c [angstrom     0.000     0.000    30.000   |c| =    30.000000
 CELL_REF| Angle (b,c), alpha [degree]:                                90.000000
 CELL_REF| Angle (a,c), beta  [degree]:                                90.000000
 CELL_REF| Angle (a,b), gamma [degree]:                                90.000000
 CELL_REF| Numerically orthorhombic:                                         YES
 CELL_REF| Periodicity                                                      NONE

 *******************************************************************************
 *******************************************************************************
 **                                                                           **
 **     #####                         ##              ##                      **
 **    ##   ##            ##          ##              ##                      **
 **   ##     ##                       ##            ######                    **
 **   ##     ##  ##   ##  ##   #####  ##  ##   ####   ##    #####    #####    **
 **   ##     ##  ##   ##  ##  ##      ## ##   ##      ##   ##   ##  ##   ##   **
 **   ##  ## ##  ##   ##  ##  ##      ####     ###    ##   ######   ######    **
 **    ##  ###   ##   ##  ##  ##      ## ##      ##   ##   ##       ##        **
 **     #######   #####   ##   #####  ##  ##  ####    ##    #####   ##        **
 **           ##                                                    ##        **
 **                                                                           **
 **                                                ... make the atoms dance   **
 **                                                                           **
 **            Copyright (C) by CP2K developers group (2000-2025)             **
 **                      J. Chem. Phys. 152, 194103 (2020)                    **
 **                                                                           **
 *******************************************************************************

 DFT| Spin restricted Kohn-Sham (RKS) calculation                            RKS
 DFT| Multiplicity                                                             1
 DFT| Number of spin states                                                    1
 DFT| Charge                                                                   0
 DFT| Self-interaction correction (SIC)                                       NO
 DFT| Cutoffs: density                                              1.000000E-10
 DFT|          gradient                                             1.000000E-10
 DFT|          tau                                                  1.000000E-10
 DFT|          cutoff_smoothing_range                               0.000000E+00
 DFT| XC density smoothing                                                  NONE
 DFT| XC derivatives                                                          PW

 FUNCTIONAL| PBE:
 FUNCTIONAL| J.P.Perdew, K.Burke, M.Ernzerhof, Phys. Rev. Letter, vol. 77, n 18,
 FUNCTIONAL|  pp. 3865-3868, (1996)sx=0.750sc=1.000{spin unpolarized}           


 QS| Method:                                                                GAPW
 QS| Density plane wave grid type                        NON-SPHERICAL FULLSPACE
 QS| Number of grid levels:                                                    4
 QS| Density cutoff [a.u.]:                                                250.0
 QS| Multi grid cutoff [a.u.]: 1) grid level                               250.0
 QS|                           2) grid level                                83.3
 QS|                           3) grid level                                27.8
 QS|                           4) grid level                                 9.3
 QS| Grid level progression factor:                                          3.0
 QS| Relative density cutoff [a.u.]:                                        50.0
 QS| Interaction thresholds: eps_pgf_orb:                                1.0E-12
 QS|                         eps_filter_matrix:                          0.0E+00
 QS|                         eps_core_charge:                            1.0E-14
 QS|                         eps_rho_gspace:                             1.0E-12
 QS|                         eps_rho_rspace:                             1.0E-12
 QS|                         eps_gvg_rspace:                             1.0E-06
 QS|                         eps_ppl:                                    1.0E-02
 QS|                         eps_ppnl:                                   1.0E-08
 QS| GAPW|      One center basis from orbital basis primitives
 QS| GAPW|                   eps_fit:                                    1.0E-04
 QS| GAPW|                   eps_iso:                                    1.0E-12
 QS| GAPW|                   eps_svd:                                    1.0E-08
 QS| GAPW|                   eps_cpc:                                    1.0E-12
 QS| GAPW|   atom-r-grid: quadrature:                                     GC_LOG
 QS| GAPW|      atom-s-grid:  max l :                                          4
 QS| GAPW|      max_l_rho0 :                                                   2
 QS| GAPW|      At least one kind is NOT PAW, i.e. it has only soft AO 
 QS| GAPW|      The NOT PAW atoms are treated fully GPW


 ATOMIC KIND INFORMATION

  1. Atomic kind: H                                     Number of atoms:       9

     Orbital Basis Set                                      aug-SZV-MOLOPT-ae-SR

       Number of orbital shell sets:                                           1
       Number of orbital shells:                                               4
       Number of primitive Cartesian functions:                                4
       Number of Cartesian basis functions:                                    6
       Number of spherical basis functions:                                    6
       Norm type:                                                              2

       Normalised Cartesian orbitals:

                        Set   Shell   Orbital            Exponent    Coefficient

                          1       1    2s                0.065428       0.000000
                                                         0.168855       0.083474
                                                         0.623914       0.267839
                                                         3.425251       0.276934

                          1       2    3s                0.065428      -0.066952
                                                         0.168855       0.261968
                                                         0.623914       0.081548
                                                         3.425251      -0.022414

                          1       3    4s                0.065428       0.165615
                                                         0.168855      -0.226449
                                                         0.623914      -0.005802
                                                         3.425251       0.005451

                          1       4    3px               0.065428       0.053063
                                                         0.168855      -0.030502
                                                         0.623914       0.062721
                                                         3.425251       0.019012
                          1       4    3py               0.065428       0.053063
                                                         0.168855      -0.030502
                                                         0.623914       0.062721
                                                         3.425251       0.019012
                          1       4    3pz               0.065428       0.053063
                                                         0.168855      -0.030502
                                                         0.623914       0.062721
                                                         3.425251       0.019012

     RI Auxiliary Basis Set             RI_aug-SZV-MOLOPT-ae-SR_N_RI_035_s_p_d_f

       Number of orbital shell sets:                                          15
       Number of orbital shells:                                              15
       Number of primitive Cartesian functions:                               15
       Number of Cartesian basis functions:                                   37
       Number of spherical basis functions:                                   35
       Norm type:                                                              2

       Normalised Cartesian orbitals:

                        Set   Shell   Orbital            Exponent    Coefficient

                          1       1    1s                0.236911       0.242019

                          2       1    8px               0.347892       0.380843
                          2       1    8py               0.347892       0.380843
                          2       1    8pz               0.347892       0.380843

                          3       1    2s                0.423897       0.374417

                          4       1    9px               0.493166       0.589089
                          4       1    9py               0.493166       0.589089
                          4       1    9pz               0.493166       0.589089

                          5       1   14dx2              0.625366       0.723843
                          5       1   14dxy              0.625366       1.253733
                          5       1   14dxz              0.625366       1.253733
                          5       1   14dy2              0.625366       0.723843
                          5       1   14dyz              0.625366       1.253733
                          5       1   14dz2              0.625366       0.723843

                          6       1   10px               0.699103       0.911206
                          6       1   10py               0.699103       0.911206
                          6       1   10pz               0.699103       0.911206

                          7       1    3s                0.758464       0.579244

                          8       1   11px               0.991036       1.409457
                          8       1   11py               0.991036       1.409457
                          8       1   11pz               0.991036       1.409457

                          9       1   15dx2              1.286053       2.556305
                          9       1   15dxy              1.286053       4.427650
                          9       1   15dxz              1.286053       4.427650
                          9       1   15dy2              1.286053       2.556305
                          9       1   15dyz              1.286053       4.427650
                          9       1   15dz2              1.286053       2.556305

                         10       1    4s                1.357095       0.896123

                         11       1   12px               1.404875       2.180155
                         11       1   12py               1.404875       2.180155
                         11       1   12pz               1.404875       2.180155

                         12       1   13px               1.991527       3.372273
                         12       1   13py               1.991527       3.372273
                         12       1   13pz               1.991527       3.372273

                         13       1    5s                2.428204       1.386354

                         14       1    6s                4.344704       2.144768

                         15       1    7s                7.773833       3.318077

       Atomic covalent radius [Angstrom]:                                  0.320

       Atomic van der Waals radius [Angstrom]:                             1.090

     AE Potential information for                                            ALL

       Description:                                       All-electron potential
                                          Krack, Parrinello, PCCP 2, 2105 (2000)

       Gaussian exponent of the core charge distribution:              12.500000
       Electronic configuration (s p d ...):                           1   0   0

  2. Atomic kind: C                                     Number of atoms:       6

     Orbital Basis Set                                      aug-SZV-MOLOPT-ae-SR

       Number of orbital shell sets:                                           2
       Number of orbital shells:                                               6
       Number of primitive Cartesian functions:                                7
       Number of Cartesian basis functions:                                   15
       Number of spherical basis functions:                                   14
       Norm type:                                                              2

       Normalised Cartesian orbitals:

                        Set   Shell   Orbital            Exponent    Coefficient

                          1       1    2s                0.114559       0.000000
                                                         0.222290       0.161536
                                                         0.683483       0.214036
                                                         2.941249      -0.160017

                          1       2    3s                0.114559       0.078076
                                                         0.222290       0.130402
                                                         0.683483      -0.084834
                                                         2.941249       0.041379

                          1       3    3px               0.114559       0.000000
                                                         0.222290       0.085276
                                                         0.683483       0.538304
                                                         2.941249       0.856045
                          1       3    3py               0.114559       0.000000
                                                         0.222290       0.085276
                                                         0.683483       0.538304
                                                         2.941249       0.856045
                          1       3    3pz               0.114559       0.000000
                                                         0.222290       0.085276
                                                         0.683483       0.538304
                                                         2.941249       0.856045

                          1       4    4px               0.114559       0.224492
                                                         0.222290      -0.546182
                                                         0.683483       0.918493
                                                         2.941249      -0.348342
                          1       4    4py               0.114559       0.224492
                                                         0.222290      -0.546182
                                                         0.683483       0.918493
                                                         2.941249      -0.348342
                          1       4    4pz               0.114559       0.224492
                                                         0.222290      -0.546182
                                                         0.683483       0.918493
                                                         2.941249      -0.348342

                          1       5    4dx2              0.114559       0.004023
                                                         0.222290       0.096934
                                                         0.683483       0.116751
                                                         2.941249       0.357653
                          1       5    4dxy              0.114559       0.006968
                                                         0.222290       0.167895
                                                         0.683483       0.202218
                                                         2.941249       0.619473
                          1       5    4dxz              0.114559       0.006968
                                                         0.222290       0.167895
                                                         0.683483       0.202218
                                                         2.941249       0.619473
                          1       5    4dy2              0.114559       0.004023
                                                         0.222290       0.096934
                                                         0.683483       0.116751
                                                         2.941249       0.357653
                          1       5    4dyz              0.114559       0.006968
                                                         0.222290       0.167895
                                                         0.683483       0.202218
                                                         2.941249       0.619473
                          1       5    4dz2              0.114559       0.004023
                                                         0.222290       0.096934
                                                         0.683483       0.116751
                                                         2.941249       0.357653

                          2       1    1s               71.616837       2.707814
                                                        13.045096       2.618880
                                                         3.530512       0.816191

     RI Auxiliary Basis Set             RI_aug-SZV-MOLOPT-ae-SR_N_RI_075_s_p_d_f

       Number of orbital shell sets:                                          19
       Number of orbital shells:                                              19
       Number of primitive Cartesian functions:                               19
       Number of Cartesian basis functions:                                   99
       Number of spherical basis functions:                                   75
       Norm type:                                                              2

       Normalised Cartesian orbitals:

                        Set   Shell   Orbital            Exponent    Coefficient

                          1       1    7px               0.280788       0.291348
                          1       1    7py               0.280788       0.291348
                          1       1    7pz               0.280788       0.291348

                          2       1    1s                0.306994       0.293939

                          3       1   12dx2              0.425885       0.369548
                          3       1   12dxy              0.425885       0.640076
                          3       1   12dxz              0.425885       0.640076
                          3       1   12dy2              0.425885       0.369548
                          3       1   12dyz              0.425885       0.640076
                          3       1   12dz2              0.425885       0.369548

                          4       1   15fx3              0.441457       0.233859
                          4       1   15fx2y             0.441457       0.522924
                          4       1   15fx2z             0.441457       0.522924
                          4       1   15fxy2             0.441457       0.522924
                          4       1   15fxyz             0.441457       0.905731
                          4       1   15fxz2             0.441457       0.522924
                          4       1   15fy3              0.441457       0.233859
                          4       1   15fy2z             0.441457       0.522924
                          4       1   15fyz2             0.441457       0.522924
                          4       1   15fz3              0.441457       0.233859

                          5       1    8px               0.477699       0.566087
                          5       1    8py               0.477699       0.566087
                          5       1    8pz               0.477699       0.566087

                          6       1   16fx3              0.901688       1.166355
                          6       1   16fx2y             0.901688       2.608049
                          6       1   16fx2z             0.901688       2.608049
                          6       1   16fxy2             0.901688       2.608049
                          6       1   16fxyz             0.901688       4.517273
                          6       1   16fxz2             0.901688       2.608049
                          6       1   16fy3              0.901688       1.166355
                          6       1   16fy2z             0.901688       2.608049
                          6       1   16fyz2             0.901688       2.608049
                          6       1   16fz3              0.901688       1.166355

                          7       1   18gx4              0.934410       0.923449
                          7       1   18gx3y             0.934410       2.443217
                          7       1   18gx3z             0.934410       2.443217
                          7       1   18gx2y2            0.934410       3.154180
                          7       1   18gx2yz            0.934410       5.463200
                          7       1   18gx2z2            0.934410       3.154180
                          7       1   18gxy3             0.934410       2.443217
                          7       1   18gxy2z            0.934410       5.463200
                          7       1   18gxyz2            0.934410       5.463200
                          7       1   18gxz3             0.934410       2.443217
                          7       1   18gy4              0.934410       0.923449
                          7       1   18gy3z             0.934410       2.443217
                          7       1   18gy2z2            0.934410       3.154180
                          7       1   18gyz3             0.934410       2.443217
                          7       1   18gz4              0.934410       0.923449

                          8       1    2s                0.946862       0.684109

                          9       1    3s                1.268857       0.852059

                         10       1   13dx2              1.288245       2.563934
                         10       1   13dxy              1.288245       4.440865
                         10       1   13dxz              1.288245       4.440865
                         10       1   13dy2              1.288245       2.563934
                         10       1   13dyz              1.288245       4.440865
                         10       1   13dz2              1.288245       2.563934

                         11       1    9px               1.399800       2.170315
                         11       1    9py               1.399800       2.170315
                         11       1    9pz               1.399800       2.170315

                         12       1   19gx4              1.535589       3.619858
                         12       1   19gx3y             1.535589       9.577244
                         12       1   19gx3z             1.535589       9.577244
                         12       1   19gx2y2            1.535589      12.364169
                         12       1   19gx2yz            1.535589      21.415368
                         12       1   19gx2z2            1.535589      12.364169
                         12       1   19gxy3             1.535589       9.577244
                         12       1   19gxy2z            1.535589      21.415368
                         12       1   19gxyz2            1.535589      21.415368
                         12       1   19gxz3             1.535589       9.577244
                         12       1   19gy4              1.535589       3.619858
                         12       1   19gy3z             1.535589       9.577244
                         12       1   19gy2z2            1.535589      12.364169
                         12       1   19gyz3             1.535589       9.577244
                         12       1   19gz4              1.535589       3.619858

                         13       1   14dx2              2.335379       7.261643
                         13       1   14dxy              2.335379      12.577535
                         13       1   14dxz              2.335379      12.577535
                         13       1   14dy2              2.335379       7.261643
                         13       1   14dyz              2.335379      12.577535
                         13       1   14dz2              2.335379       7.261643

                         14       1   17fx3              2.532110      11.906668
                         14       1   17fx2y             2.532110      26.624119
                         14       1   17fx2z             2.532110      26.624119
                         14       1   17fxy2             2.532110      26.624119
                         14       1   17fxyz             2.532110      46.114327
                         14       1   17fxz2             2.532110      26.624119
                         14       1   17fy3              2.532110      11.906668
                         14       1   17fy2z             2.532110      26.624119
                         14       1   17fyz2             2.532110      26.624119
                         14       1   17fz3              2.532110      11.906668

                         15       1   10px               4.817840      10.174323
                         15       1   10py               4.817840      10.174323
                         15       1   10pz               4.817840      10.174323

                         16       1    4s                4.925178       2.356278

                         17       1   11px              16.202890      46.337296
                         17       1   11py              16.202890      46.337296
                         17       1   11pz              16.202890      46.337296

                         18       1    5s               21.643648       7.151678

                         19       1    6s               78.500404      18.795938

       Atomic covalent radius [Angstrom]:                                  0.770

       Atomic van der Waals radius [Angstrom]:                             1.700

     The atoms of this atomic kind are PAW atoms (GAPW):
       Hard Gaussian function radius:                                      1.512
       Rho0 radius:                                                        1.512
       Maximum GTO radius used for PAW projector construction:            24.566

     GAPW Soft Basis Set                               aug-SZV-MOLOPT-ae-SR_soft

       Number of orbital shell sets:                                           2
       Number of orbital shells:                                               6
       Number of primitive Cartesian functions:                                5
       Number of Cartesian basis functions:                                   15
       Number of spherical basis functions:                                   14
       Norm type:                                                              2

       Normalised Cartesian orbitals:

                        Set   Shell   Orbital            Exponent    Coefficient

                          1       1    2s                0.114559       0.000000
                                                         0.222290       0.161536
                                                         0.683483       0.214036
                                                         2.941249      -0.160017

                          1       2    3s                0.114559       0.078076
                                                         0.222290       0.130402
                                                         0.683483      -0.084834
                                                         2.941249       0.041379

                          1       3    3px               0.114559       0.000000
                                                         0.222290       0.085276
                                                         0.683483       0.538304
                                                         2.941249       0.856045
                          1       3    3py               0.114559       0.000000
                                                         0.222290       0.085276
                                                         0.683483       0.538304
                                                         2.941249       0.856045
                          1       3    3pz               0.114559       0.000000
                                                         0.222290       0.085276
                                                         0.683483       0.538304
                                                         2.941249       0.856045

                          1       4    4px               0.114559       0.224492
                                                         0.222290      -0.546182
                                                         0.683483       0.918493
                                                         2.941249      -0.348342
                          1       4    4py               0.114559       0.224492
                                                         0.222290      -0.546182
                                                         0.683483       0.918493
                                                         2.941249      -0.348342
                          1       4    4pz               0.114559       0.224492
                                                         0.222290      -0.546182
                                                         0.683483       0.918493
                                                         2.941249      -0.348342

                          1       5    4dx2              0.114559       0.004023
                                                         0.222290       0.096934
                                                         0.683483       0.116751
                                                         2.941249       0.357653
                          1       5    4dxy              0.114559       0.006968
                                                         0.222290       0.167895
                                                         0.683483       0.202218
                                                         2.941249       0.619473
                          1       5    4dxz              0.114559       0.006968
                                                         0.222290       0.167895
                                                         0.683483       0.202218
                                                         2.941249       0.619473
                          1       5    4dy2              0.114559       0.004023
                                                         0.222290       0.096934
                                                         0.683483       0.116751
                                                         2.941249       0.357653
                          1       5    4dyz              0.114559       0.006968
                                                         0.222290       0.167895
                                                         0.683483       0.202218
                                                         2.941249       0.619473
                          1       5    4dz2              0.114559       0.004023
                                                         0.222290       0.096934
                                                         0.683483       0.116751
                                                         2.941249       0.357653

                          2       1    1s                3.530512       0.816191

     AE Potential information for                                            ALL

       Description:                                       All-electron potential
                                          Krack, Parrinello, PCCP 2, 2105 (2000)

       Gaussian exponent of the core charge distribution:               4.109048
       Electronic configuration (s p d ...):                           4   2   0

  3. Atomic kind: O                                     Number of atoms:       4

     Orbital Basis Set                                      aug-SZV-MOLOPT-ae-SR

       Number of orbital shell sets:                                           2
       Number of orbital shells:                                               6
       Number of primitive Cartesian functions:                                7
       Number of Cartesian basis functions:                                   15
       Number of spherical basis functions:                                   14
       Norm type:                                                              2

       Normalised Cartesian orbitals:

                        Set   Shell   Orbital            Exponent    Coefficient

                          1       1    1s                0.162492       0.000000
                                                         0.380389       0.241686
                                                         1.169596       0.320234
                                                         5.033151      -0.239413

                          1       2    2s                0.162492       0.120425
                                                         0.380389       0.131001
                                                         1.169596      -0.000041
                                                         5.033151      -0.089217

                          1       3    2px               0.162492       0.000000
                                                         0.380389       0.166903
                                                         1.169596       1.053568
                                                         5.033151       1.675450
                          1       3    2py               0.162492       0.000000
                                                         0.380389       0.166903
                                                         1.169596       1.053568
                                                         5.033151       1.675450
                          1       3    2pz               0.162492       0.000000
                                                         0.380389       0.166903
                                                         1.169596       1.053568
                                                         5.033151       1.675450

                          1       4    3px               0.162492       0.001278
                                                         0.380389       0.422682
                                                         1.169596       0.000775
                                                         5.033151       0.003884
                          1       4    3py               0.162492       0.001278
                                                         0.380389       0.422682
                                                         1.169596       0.000775
                                                         5.033151       0.003884
                          1       4    3pz               0.162492       0.001278
                                                         0.380389       0.422682
                                                         1.169596       0.000775
                                                         5.033151       0.003884

                          1       5    3dx2              0.162492      -0.037898
                                                         0.380389       0.380180
                                                         1.169596       0.208664
                                                         5.033151       1.207157
                          1       5    3dxy              0.162492      -0.065641
                                                         0.380389       0.658491
                                                         1.169596       0.361417
                                                         5.033151       2.090858
                          1       5    3dxz              0.162492      -0.065641
                                                         0.380389       0.658491
                                                         1.169596       0.361417
                                                         5.033151       2.090858
                          1       5    3dy2              0.162492      -0.037898
                                                         0.380389       0.380180
                                                         1.169596       0.208664
                                                         5.033151       1.207157
                          1       5    3dyz              0.162492      -0.065641
                                                         0.380389       0.658491
                                                         1.169596       0.361417
                                                         5.033151       2.090858
                          1       5    3dz2              0.162492      -0.037898
                                                         0.380389       0.380180
                                                         1.169596       0.208664
                                                         5.033151       1.207157

                          2       1    1s              130.709321       4.251943
                                                        23.808866       4.112294
                                                         6.443608       1.281623

     RI Auxiliary Basis Set             RI_aug-SZV-MOLOPT-ae-SR_N_RI_094_s_p_d_f

       Number of orbital shell sets:                                          24
       Number of orbital shells:                                              24
       Number of primitive Cartesian functions:                               24
       Number of Cartesian basis functions:                                  121
       Number of spherical basis functions:                                   94
       Norm type:                                                              2

       Normalised Cartesian orbitals:

                        Set   Shell   Orbital            Exponent    Coefficient

                          1       1   14dx2              0.302855       0.203503
                          1       1   14dxy              0.302855       0.352477
                          1       1   14dxz              0.302855       0.352477
                          1       1   14dy2              0.302855       0.203503
                          1       1   14dyz              0.302855       0.352477
                          1       1   14dz2              0.302855       0.203503

                          2       1    1s                0.351583       0.325410

                          3       1   15dx2              0.572744       0.620641
                          3       1   15dxy              0.572744       1.074983
                          3       1   15dxz              0.572744       1.074983
                          3       1   15dy2              0.572744       0.620641
                          3       1   15dyz              0.572744       1.074983
                          3       1   15dz2              0.572744       0.620641

                          4       1    8px               0.604446       0.759690
                          4       1    8py               0.604446       0.759690
                          4       1    8pz               0.604446       0.759690

                          5       1    2s                0.644875       0.512881

                          6       1    9px               0.823718       1.118571
                          6       1    9py               0.823718       1.118571
                          6       1    9pz               0.823718       1.118571

                          7       1   23gx4              0.975015       1.038045
                          7       1   23gx3y             0.975015       2.746409
                          7       1   23gx3z             0.975015       2.746409
                          7       1   23gx2y2            0.975015       3.545599
                          7       1   23gx2yz            0.975015       6.141158
                          7       1   23gx2z2            0.975015       3.545599
                          7       1   23gxy3             0.975015       2.746409
                          7       1   23gxy2z            0.975015       6.141158
                          7       1   23gxyz2            0.975015       6.141158
                          7       1   23gxz3             0.975015       2.746409
                          7       1   23gy4              0.975015       1.038045
                          7       1   23gy3z             0.975015       2.746409
                          7       1   23gy2z2            0.975015       3.545599
                          7       1   23gyz3             0.975015       2.746409
                          7       1   23gz4              0.975015       1.038045

                          8       1   20fx3              1.042512       1.616728
                          8       1   20fx2y             1.042512       3.615113
                          8       1   20fx2z             1.042512       3.615113
                          8       1   20fxy2             1.042512       3.615113
                          8       1   20fxyz             1.042512       6.261560
                          8       1   20fxz2             1.042512       3.615113
                          8       1   20fy3              1.042512       1.616728
                          8       1   20fy2z             1.042512       3.615113
                          8       1   20fyz2             1.042512       3.615113
                          8       1   20fz3              1.042512       1.616728

                          9       1   16dx2              1.084348       1.896507
                          9       1   16dxy              1.084348       3.284847
                          9       1   16dxz              1.084348       3.284847
                          9       1   16dy2              1.084348       1.896507
                          9       1   16dyz              1.084348       3.284847
                          9       1   16dz2              1.084348       1.896507

                         10       1    3s                1.789865       1.102872

                         11       1   17dx2              2.049940       5.780383
                         11       1   17dxy              2.049940      10.011917
                         11       1   17dxz              2.049940      10.011917
                         11       1   17dy2              2.049940       5.780383
                         11       1   17dyz              2.049940      10.011917
                         11       1   17dz2              2.049940       5.780383

                         12       1   10px               2.080883       3.562458
                         12       1   10py               2.080883       3.562458
                         12       1   10pz               2.080883       3.562458

                         13       1   21fx3              2.267771       9.290791
                         13       1   21fx2y             2.267771      20.774841
                         13       1   21fx2z             2.267771      20.774841
                         13       1   21fxy2             2.267771      20.774841
                         13       1   21fxyz             2.267771      35.983079
                         13       1   21fxz2             2.267771      20.774841
                         13       1   21fy3              2.267771       9.290791
                         13       1   21fy2z             2.267771      20.774841
                         13       1   21fyz2             2.267771      20.774841
                         13       1   21fz3              2.267771       9.290791

                         14       1   24gx4              2.269901      10.603631
                         14       1   24gx3y             2.269901      28.054571
                         14       1   24gx3z             2.269901      28.054571
                         14       1   24gx2y2            2.269901      36.218295
                         14       1   24gx2yz            2.269901      62.731928
                         14       1   24gx2z2            2.269901      36.218295
                         14       1   24gxy3             2.269901      28.054571
                         14       1   24gxy2z            2.269901      62.731928
                         14       1   24gxyz2            2.269901      62.731928
                         14       1   24gxz3             2.269901      28.054571
                         14       1   24gy4              2.269901      10.603631
                         14       1   24gy3z             2.269901      28.054571
                         14       1   24gy2z2            2.269901      36.218295
                         14       1   24gyz3             2.269901      28.054571
                         14       1   24gz4              2.269901      10.603631

                         15       1   18dx2              3.875832      17.621715
                         15       1   18dxy              3.875832      30.521706
                         15       1   18dxz              3.875832      30.521706
                         15       1   18dy2              3.875832      17.621715
                         15       1   18dyz              3.875832      30.521706
                         15       1   18dz2              3.875832      17.621715

                         16       1   22fx3              4.795051      50.088644
                         16       1   22fx2y             4.795051     112.001612
                         16       1   22fx2z             4.795051     112.001612
                         16       1   22fxy2             4.795051     112.001612
                         16       1   22fxyz             4.795051     193.992483
                         16       1   22fxz2             4.795051     112.001612
                         16       1   22fy3              4.795051      50.088644
                         16       1   22fy2z             4.795051     112.001612
                         16       1   22fyz2             4.795051     112.001612
                         16       1   22fz3              4.795051      50.088644

                         17       1   11px               5.513293      12.042148
                         17       1   11py               5.513293      12.042148
                         17       1   11pz               5.513293      12.042148

                         18       1    4s                6.240947       2.814155

                         19       1   19dx2              7.321398      53.635085
                         19       1   19dxy              7.321398      92.898692
                         19       1   19dxz              7.321398      92.898692
                         19       1   19dy2              7.321398      53.635085
                         19       1   19dyz              7.321398      92.898692
                         19       1   19dz2              7.321398      53.635085

                         20       1   12px              13.137317      35.651142
                         20       1   12py              13.137317      35.651142
                         20       1   12pz              13.137317      35.651142

                         21       1    5s               18.794911       6.433396

                         22       1   13px              31.295130     105.508159
                         22       1   13py              31.295130     105.508159
                         22       1   13pz              31.295130     105.508159

                         23       1    6s               55.276172      14.448194

                         24       1    7s              162.769315      32.478016

       Atomic covalent radius [Angstrom]:                                  0.730

       Atomic van der Waals radius [Angstrom]:                             1.520

     The atoms of this atomic kind are PAW atoms (GAPW):
       Hard Gaussian function radius:                                      1.512
       Rho0 radius:                                                        1.512
       Maximum GTO radius used for PAW projector construction:            24.566

     GAPW Soft Basis Set                               aug-SZV-MOLOPT-ae-SR_soft

       Number of orbital shell sets:                                           2
       Number of orbital shells:                                               6
       Number of primitive Cartesian functions:                                3
       Number of Cartesian basis functions:                                   15
       Number of spherical basis functions:                                   14
       Norm type:                                                              2

       Normalised Cartesian orbitals:

                        Set   Shell   Orbital            Exponent    Coefficient

                          1       1    1s                0.162492       0.000000
                                                         0.380389       0.241686
                                                         1.169596       0.320234

                          1       2    2s                0.162492       0.120425
                                                         0.380389       0.131001
                                                         1.169596      -0.000041

                          1       3    2px               0.162492       0.000000
                                                         0.380389       0.166903
                                                         1.169596       1.053568
                          1       3    2py               0.162492       0.000000
                                                         0.380389       0.166903
                                                         1.169596       1.053568
                          1       3    2pz               0.162492       0.000000
                                                         0.380389       0.166903
                                                         1.169596       1.053568

                          1       4    3px               0.162492       0.001278
                                                         0.380389       0.422682
                                                         1.169596       0.000775
                          1       4    3py               0.162492       0.001278
                                                         0.380389       0.422682
                                                         1.169596       0.000775
                          1       4    3pz               0.162492       0.001278
                                                         0.380389       0.422682
                                                         1.169596       0.000775

                          1       5    3dx2              0.162492      -0.037898
                                                         0.380389       0.380180
                                                         1.169596       0.208664
                          1       5    3dxy              0.162492      -0.065641
                                                         0.380389       0.658491
                                                         1.169596       0.361417
                          1       5    3dxz              0.162492      -0.065641
                                                         0.380389       0.658491
                                                         1.169596       0.361417
                          1       5    3dy2              0.162492      -0.037898
                                                         0.380389       0.380180
                                                         1.169596       0.208664
                          1       5    3dyz              0.162492      -0.065641
                                                         0.380389       0.658491
                                                         1.169596       0.361417
                          1       5    3dz2              0.162492      -0.037898
                                                         0.380389       0.380180
                                                         1.169596       0.208664

                          2       1    1s         

     AE Potential information for                                            ALL

       Description:                                       All-electron potential
                                          Krack, Parrinello, PCCP 2, 2105 (2000)

       Gaussian exponent of the core charge distribution:               8.154466
       Electronic configuration (s p d ...):                           4   4   0

  4. Atomic kind: N                                     Number of atoms:       1

     Orbital Basis Set                                      aug-SZV-MOLOPT-ae-SR

       Number of orbital shell sets:                                           2
       Number of orbital shells:                                               6
       Number of primitive Cartesian functions:                                7
       Number of Cartesian basis functions:                                   15
       Number of spherical basis functions:                                   14
       Norm type:                                                              2

       Normalised Cartesian orbitals:

                        Set   Shell   Orbital            Exponent    Coefficient

                          1       1    1s                0.112012       0.000000
                                                         0.285714       0.194997
                                                         0.878497       0.258372
                                                         3.780456      -0.193164

                          1       2    2s                0.112012       0.083551
                                                         0.285714      -0.189186
                                                         0.878497      -0.469875
                                                         3.780456      -0.002085

                          1       3    2px               0.112012       0.000000
                                                         0.285714       0.116706
                                                         0.878497       0.736704
                                                         3.780456       1.171553
                          1       3    2py               0.112012       0.000000
                                                         0.285714       0.116706
                                                         0.878497       0.736704
                                                         3.780456       1.171553
                          1       3    2pz               0.112012       0.000000
                                                         0.285714       0.116706
                                                         0.878497       0.736704
                                                         3.780456       1.171553

                          1       4    3px               0.112012       0.141957
                                                         0.285714      -0.286713
                                                         0.878497       0.074784
                                                         3.780456       0.008085
                          1       4    3py               0.112012       0.141957
                                                         0.285714      -0.286713
                                                         0.878497       0.074784
                                                         3.780456       0.008085
                          1       4    3pz               0.112012       0.141957
                                                         0.285714      -0.286713
                                                         0.878497       0.074784
                                                         3.780456       0.008085

                          1       5    3dx2              0.112012      -0.000364
                                                         0.285714       0.186009
                                                         0.878497      -0.044751
                                                         3.780456       1.815169
                          1       5    3dxy              0.112012      -0.000630
                                                         0.285714       0.322177
                                                         0.878497      -0.077512
                                                         3.780456       3.143965
                          1       5    3dxz              0.112012      -0.000630
                                                         0.285714       0.322177
                                                         0.878497      -0.077512
                                                         3.780456       3.143965
                          1       5    3dy2              0.112012      -0.000364
                                                         0.285714       0.186009
                                                         0.878497      -0.044751
                                                         3.780456       1.815169
                          1       5    3dyz              0.112012      -0.000630
                                                         0.285714       0.322177
                                                         0.878497      -0.077512
                                                         3.780456       3.143965
                          1       5    3dz2              0.112012      -0.000364
                                                         0.285714       0.186009
                                                         0.878497      -0.044751
                                                         3.780456       1.815169

                          2       1    1s               99.106169       3.454881
                                                        18.052312       3.341410
                                                         4.885660       1.041372

     RI Auxiliary Basis Set             RI_aug-SZV-MOLOPT-ae-SR_N_RI_089_s_p_d_f

       Number of orbital shell sets:                                          21
       Number of orbital shells:                                              21
       Number of primitive Cartesian functions:                               21
       Number of Cartesian basis functions:                                  120
       Number of spherical basis functions:                                   89
       Norm type:                                                              2

       Normalised Cartesian orbitals:

                        Set   Shell   Orbital            Exponent    Coefficient

                          1       1    1s                0.267502       0.265097

                          2       1    7px               0.363169       0.401861
                          2       1    7py               0.363169       0.401861
                          2       1    7pz               0.363169       0.401861

                          3       1   12dx2              0.369517       0.288250
                          3       1   12dxy              0.369517       0.499264
                          3       1   12dxz              0.369517       0.499264
                          3       1   12dy2              0.369517       0.288250
                          3       1   12dyz              0.369517       0.499264
                          3       1   12dz2              0.369517       0.288250

                          4       1    2s                0.470345       0.404783

                          5       1   16fx3              0.516119       0.332385
                          5       1   16fx2y             0.516119       0.743236
                          5       1   16fx2z             0.516119       0.743236
                          5       1   16fxy2             0.516119       0.743236
                          5       1   16fxyz             0.516119       1.287322
                          5       1   16fxz2             0.516119       0.743236
                          5       1   16fy3              0.516119       0.332385
                          5       1   16fy2z             0.516119       0.743236
                          5       1   16fyz2             0.516119       0.743236
                          5       1   16fz3              0.516119       0.332385

                          6       1   13dx2              0.573630       0.622322
                          6       1   13dxy              0.573630       1.077893
                          6       1   13dxz              0.573630       1.077893
                          6       1   13dy2              0.573630       0.622322
                          6       1   13dyz              0.573630       1.077893
                          6       1   13dz2              0.573630       0.622322

                          7       1    8px               0.636008       0.809596
                          7       1    8py               0.636008       0.809596
                          7       1    8pz               0.636008       0.809596

                          8       1   19gx4              0.870859       0.760838
                          8       1   19gx3y             0.870859       2.012988
                          8       1   19gx3z             0.870859       2.012988
                          8       1   19gx2y2            0.870859       2.598756
                          8       1   19gx2yz            0.870859       4.501178
                          8       1   19gx2z2            0.870859       2.598756
                          8       1   19gxy3             0.870859       2.012988
                          8       1   19gxy2z            0.870859       4.501178
                          8       1   19gxyz2            0.870859       4.501178
                          8       1   19gxz3             0.870859       2.012988
                          8       1   19gy4              0.870859       0.760838
                          8       1   19gy3z             0.870859       2.012988
                          8       1   19gy2z2            0.870859       2.598756
                          8       1   19gyz3             0.870859       2.012988
                          8       1   19gz4              0.870859       0.760838

                          9       1   17fx3              1.154647       2.034537
                          9       1   17fx2y             1.154647       4.549363
                          9       1   17fx2z             1.154647       4.549363
                          9       1   17fxy2             1.154647       4.549363
                          9       1   17fxyz             1.154647       7.879729
                          9       1   17fxz2             1.154647       4.549363
                          9       1   17fy3              1.154647       2.034537
                          9       1   17fy2z             1.154647       4.549363
                          9       1   17fyz2             1.154647       4.549363
                          9       1   17fz3              1.154647       2.034537

                         10       1   20gx4              1.247848       2.045878
                         10       1   20gx3y             1.247848       5.412884
                         10       1   20gx3z             1.247848       5.412884
                         10       1   20gx2y2            1.247848       6.988003
                         10       1   20gx2yz            1.247848      12.103577
                         10       1   20gx2z2            1.247848       6.988003
                         10       1   20gxy3             1.247848       5.412884
                         10       1   20gxy2z            1.247848      12.103577
                         10       1   20gxyz2            1.247848      12.103577
                         10       1   20gxz3             1.247848       5.412884
                         10       1   20gy4              1.247848       2.045878
                         10       1   20gy3z             1.247848       5.412884
                         10       1   20gy2z2            1.247848       6.988003
                         10       1   20gyz3             1.247848       5.412884
                         10       1   20gz4              1.247848       2.045878

                         11       1    3s                1.608218       1.017815

                         12       1   21gx4              1.820317       5.778825
                         12       1   21gx3y             1.820317      15.289334
                         12       1   21gx3z             1.820317      15.289334
                         12       1   21gx2y2            1.820317      19.738445
                         12       1   21gx2yz            1.820317      34.187990
                         12       1   21gx2z2            1.820317      19.738445
                         12       1   21gxy3             1.820317      15.289334
                         12       1   21gxy2z            1.820317      34.187990
                         12       1   21gxyz2            1.820317      34.187990
                         12       1   21gxz3             1.820317      15.289334
                         12       1   21gy4              1.820317       5.778825
                         12       1   21gy3z             1.820317      15.289334
                         12       1   21gy2z2            1.820317      19.738445
                         12       1   21gyz3             1.820317      15.289334
                         12       1   21gz4              1.820317       5.778825

                         13       1   14dx2              2.087918       5.969089
                         13       1   14dxy              2.087918      10.338765
                         13       1   14dxz              2.087918      10.338765
                         13       1   14dy2              2.087918       5.969089
                         13       1   14dyz              2.087918      10.338765
                         13       1   14dz2              2.087918       5.969089

                         14       1    9px               2.537910       4.565993
                         14       1    9py               2.537910       4.565993
                         14       1    9pz               2.537910       4.565993

                         15       1   18fx3              3.628403      26.749427
                         15       1   18fx2y             3.628403      59.813538
                         15       1   18fx2z             3.628403      59.813538
                         15       1   18fxy2             3.628403      59.813538
                         15       1   18fxyz             3.628403     103.600086
                         15       1   18fxz2             3.628403      59.813538
                         15       1   18fy3              3.628403      26.749427
                         15       1   18fy2z             3.628403      59.813538
                         15       1   18fyz2             3.628403      59.813538
                         15       1   18fz3              3.628403      26.749427

                         16       1   15dx2              5.366720      31.145839
                         16       1   15dxy              5.366720      53.946175
                         16       1   15dxz              5.366720      53.946175
                         16       1   15dy2              5.366720      31.145839
                         16       1   15dyz              5.366720      53.946175
                         16       1   15dz2              5.366720      31.145839

                         17       1    4s                7.348149       3.180853

                         18       1   10px               7.396841      17.387931
                         18       1   10py               7.396841      17.387931
                         18       1   10pz               7.396841      17.387931

[...]
 -                                                                             -
 -------------------------------------------------------------------------------
 SUBROUTINE                       CALLS  ASD         SELF TIME        TOTAL TIME
                                MAXIMUM       AVERAGE  MAXIMUM  AVERAGE  MAXIMUM
 CP2K                                 1  1.0    0.041    0.063  350.512  350.516
 qs_energies                          1  2.0    0.000    0.002  349.956  349.960
 qs_energies_properties               1  3.0    0.000    0.000  273.421  273.424
 tddfpt                               1  4.0    0.000    0.000  273.421  273.424
 tddfpt_energies                      1  5.0    0.000    0.002  273.395  273.398
 tddfpt_davidson_solver               1  6.0    0.001    0.001  269.985  269.988
 tddfpt_compute_Aop_evects           10  7.0    0.000    0.000  263.543  263.547
 fhxc_kernel                         10  8.0    0.006    0.008  240.866  240.869
 fft_wrap_pw1pw2                   5443 11.1    0.064    0.078  138.882  139.924
 fft_wrap_pw1pw2_250               3829 12.2    2.574    2.697  133.210  134.363
 fft3d_ps                          5443 13.1   17.614   20.130  127.125  128.706
 mp_alltoall_z22v                  5443 15.1  104.857  107.304  104.857  107.304
 pw_poisson_solve                   268  9.5    1.119    1.491   98.055   98.304
 tddfpt_apply_coulomb               200  9.0    0.002    0.003   88.190   88.418
 scf_env_do_scf                       1  3.0    0.000    0.000   75.633   75.634
 scf_env_do_scf_inner_loop           68  4.0    0.001    0.003   75.633   75.634
 ps_wavelet_solve                   268 10.5   34.928   40.578   64.304   64.857
 qs_rho_update_rho_low              270  8.0    0.003    0.003   60.811   60.920
 calculate_rho_elec                 270  9.0    0.837    0.995   60.191   60.300
 xc_pw_derive                      1611 11.0    0.008    0.009   58.265   58.703
 tddfpt_apply_xc_analytic           200  9.0    0.205    0.227   57.499   57.640
 x_to_yz                           2752 13.8    2.447    2.869   54.778   55.848
 yz_to_x                           2691 14.4    2.020    2.417   54.545   55.836
 qs_ks_update_qs_env                 68  5.0    0.000    0.001   54.356   54.360
 rebuild_ks_matrix                   68  6.0    0.000    0.000   54.350   54.354
 qs_ks_build_kohn_sham_matrix        68  7.0    0.009    0.012   54.350   54.354
 mp_alltoall_d54                    268 11.5   13.212   42.679   13.212   42.679
 density_rs2pw                      270 10.0    0.008    0.008   37.505   39.064
 xc_pw_divergence                   268 10.7    0.004    0.005   38.006   38.427
 integrate_v_rspace                 268  9.0    0.007    0.008   34.150   34.184
 potential_pw2rs                    268 10.0    0.039    0.041   32.693   32.787
 xc_calc_2nd_deriv_analytical       600 10.2    1.032    1.252   32.704   32.730
 transfer_pw2rs                    1341 10.9    0.013    0.015   24.292   24.615
 grid_collocate_task_list           270 10.0   20.692   22.227   20.692   22.227
 tddfpt_apply_hfx                    10  8.0    0.002    0.005   20.379   20.379
 transfer_rs2pw                    1351 10.9    0.017    0.022   18.398   19.973
 mp_alltoall_d11v                 17448 11.7   16.493   19.172   16.493   19.172
 mp_alltoall_d45                    269 11.5   16.068   18.838   16.068   18.838
 integrate_four_center              468  9.9    9.295   14.042   16.908   16.940
 mp_waitany                       42016 12.9   13.733   16.681   13.733   16.681
 prepare_gapw_den                   269  8.7    0.003    0.004   15.890   16.013
 put_rho0_on_grid                   269  9.7    0.857    1.048   15.123   15.246
 qs_vxc_create                       68  8.0    0.001    0.001   14.206   14.206
 xc_vxc_pw_create                    68  9.0    0.269    0.321   14.205   14.206
 cp_dbcsr_sm_fm_multiply           1246  8.6    0.015    0.016   14.030   14.084
 tddft_hfx_matrix                   400  9.0    0.004    0.005   13.305   13.329
 mp_waitall_1                    314878 13.6   11.148   12.922   11.148   12.922
 dbcsr_complete_redistribute       4121 10.5    0.106    0.178   11.728   11.783
 transfer_rs2pw_250                 541 11.8    3.065    3.304    8.716   10.216
 transfer_pw2rs_250                 537 11.7    3.050    3.341    8.863    9.309
 mp_sync                           2467 11.5    5.005    8.941    5.005    8.941
 copy_dbcsr_to_fm                  1336  9.4    0.010    0.010    8.065    8.089
 xc_rho_set_and_dset_create          69 10.0    0.181    0.193    6.879    7.627
 transfer_pw2rs_10                  268 12.0    0.431    0.474    6.727    7.216
 copy_fm_to_dbcsr                  2783  9.6    0.007    0.008    7.144    7.193
 sum_up_and_integrate                68  8.0    0.001    0.002    6.749    6.761
 gspace_mixing                       67  5.0    0.208    0.246    6.504    6.504
 transfer_pw2rs_30                  268 12.0    2.532    2.761    5.623    6.400
 integrate_vhg0_rspace              268  9.5    0.100    0.152    6.297    6.316
 mp_alltoall_i11v                 13700 11.5    6.267    6.270    6.267    6.270
 mp_sendrecv_dv                   42660 13.0    5.450    5.809    5.450    5.809
 transfer_rs2pw_30                  270 12.0    1.148    1.301    5.212    5.739
 broyden_mixing                      67  6.0    4.176    4.250    4.290    4.315
 cp2k_distribution_to_z_slices      268 10.5    1.055    1.199    3.967    4.156
 fft_wrap_pw1pw2_90                 538 12.0    0.083    0.087    3.978    4.138
 dbcsr_multiply_generic            1714 10.3    0.042    0.045    3.799    4.020
 tddfpt_orthonormalize_psi1_psi      11  6.9    0.013    0.014    3.839    3.840
 hfx_ks_matrix                       68  8.0    0.001    0.001    3.613    3.628
 cp_dbcsr_plus_fm_fm_t              268  8.5    0.002    0.002    3.353    3.552
 pw_scatter_p                      2752 12.8    3.382    3.513    3.382    3.513
 transfer_pw2rs_90                  268 12.0    0.598    0.683    3.066    3.449
 dbcsr_desymmetrize_deep           1337 10.4    0.014    0.019    3.373    3.397
 pw_derive                         2415 11.8    3.177    3.334    3.177    3.334
 transfer_rs2pw_90                  270 12.0    0.657    0.761    2.792    3.111
 pw_gather_p                       2691 13.4    2.767    2.980    2.767    2.980
 mp_sum_d                          5758  7.7    2.206    2.918    2.206    2.918
 tddfpt_print_nto_analysis            1  6.0    0.001    0.002    2.869    2.870
 pw_copy                           3625 11.0    2.518    2.616    2.518    2.616
 cp_fm_diag_elpa                    120  7.2    0.000    0.000    2.329    2.342
 cp_fm_diag_elpa_base               120  8.2    2.267    2.297    2.305    2.309
 tddfpt_apply_energy_diff            10  8.0    0.001    0.001    2.298    2.299
 transfer_rs2pw_10                  270 12.0    0.276    0.290    1.661    2.175
 mp_sum_l                          6510 10.6    1.769    2.168    1.769    2.168
 rs_grid_zero                      1344 11.9    1.950    2.088    1.950    2.088
 multiply_cannon                   1714 11.3    0.090    0.095    1.358    2.060
 update_ks_atom                     268  8.7    0.045    0.066    1.983    2.000
 mp_sum_dm                         8993 10.1    1.809    1.990    1.809    1.990
 mp_bcast_dm                       5896  9.7    1.938    1.954    1.938    1.954
 pw_copy_to_array                  2691 13.4    1.592    1.948    1.592    1.948
 pw_poisson_set                     269 10.5    0.004    0.004    1.839    1.933
 mp_sum_dv                        27209  8.9    1.857    1.925    1.857    1.925
 qs_scf_new_mos                      68  5.0    0.001    0.001    1.898    1.922
 xc_functional_eval                 605 10.9    0.001    0.002    1.128    1.879
 pbe_lda_eval                       605 11.9    1.127    1.877    1.127    1.877
 multiply_cannon_loop              1714 12.3    0.102    0.106    1.014    1.750
 hybrid_alltoall_any               4765 13.5    0.022    0.026    1.658    1.746
 cp_fm_geeig                         20  7.0    0.001    0.001    1.646    1.651
 parallel_gemm_fm                  1820  8.3    0.001    0.002    1.522    1.639
 parallel_gemm_fm_cosma            1820  9.3    1.520    1.638    1.520    1.638
 tddfpt_compute_residual_vects        9  7.0    0.000    0.001    1.633    1.633
 cp_dbcsr_sm_fm_multiply_core      1246  9.6    0.002    0.002    1.567    1.608
 pw_integral_ab_c1d_c1d_gs          268 10.5    1.177    1.203    1.427    1.574
 integrate_four_center_main         468 10.9    0.122    0.249    1.371    1.558
 pw_copy_from_array                2752 12.8    1.275    1.508    1.275    1.508
 cp_fm_trace_a1b1t1_aa            20310  8.0    0.041    0.044    1.484    1.489
 rs_gather_matrices                 268 10.0    0.007    0.009    1.262    1.445
 multiply_cannon_metrocomm3       34280 13.3    0.047    0.050    0.586    1.412
 pw_axpy                           2956 10.8    1.341    1.411    1.341    1.411
 integrate_four_center_bin        41186 11.9    1.249    1.348    1.249    1.348
 eigensolver_symm                    68  6.0    0.005    0.005    1.252    1.257
 pw_zero                           3014 10.6    1.091    1.170    1.091    1.170
 mp_isendrecv_dv                 116288 12.3    0.407    1.104    0.407    1.104
 fft_wrap_pw1pw2_30                 538 12.0    0.016    0.017    1.002    1.056
 grid_integrate_task_list           268 10.0    0.188    1.027    0.188    1.027
 mp_alltoall_i22                   5458 11.5    0.831    0.935    0.831    0.935
 multiply_cannon_metrocomm1       34280 13.3    0.012    0.012    0.100    0.877
 calculate_xc_2nd_deriv_atom        200  9.0    0.076    0.310    0.170    0.875
 make_m2s                          3428 11.3    0.029    0.030    0.797    0.863
 mp_cart_sub                       2674 11.4    0.835    0.838    0.835    0.838
 rs_scatter_matrices                270 10.0    0.003    0.004    0.667    0.777
 make_images                       3428 12.3    0.077    0.079    0.705    0.765
 mp_isend_dv                      99634 13.9    0.303    0.717    0.303    0.717
 fft_wrap_pw1pw2_10                 538 12.0    0.005    0.005    0.628    0.643
 calculate_rho_atom                 807  9.7    0.372    0.634    0.372    0.634
 qs_energies_init_hamiltonians        1  3.0    0.000    0.003    0.626    0.627
 calculate_rho_atom_coeff           270  9.0    0.058    0.066    0.618    0.622
 gaVxcgb_GC                         268  9.7    0.082    0.605    0.082    0.605
 mp_max_i                           741  5.2    0.432    0.584    0.432    0.584
 tddfpt_compute_ritz_vects           10  7.0    0.003    0.003    0.565    0.566
 calc_screening_functions             1 10.0    0.147    0.350    0.362    0.565
 Vh_1c_gg_integrals                 268  9.5    0.024    0.091    0.375    0.515
 prepare_dr1dr                      600 11.2    0.450    0.503    0.450    0.503
 cp_fm_triangular_invert             20  8.0    0.473    0.476    0.473    0.476
 make_images_sizes                 3428 13.3    0.002    0.003    0.406    0.461
 mp_alltoall_i44                   3428 14.3    0.404    0.459    0.404    0.459
 multiply_cannon_metrocomm4       32566 13.3    0.051    0.056    0.135    0.456
 mp_cart_create                    2145 10.7    0.396    0.444    0.397    0.446
 build_core_hamiltonian_matrix        1  4.0    0.000    0.001    0.440    0.441
 overlap_condnum                      1  5.0    0.000    0.002    0.439    0.440
 arnoldi_conjugate_gradient           5  6.0    0.006    0.008    0.406    0.406
 pw_poisson_rebuild                 268 10.5    0.000    0.000    0.386    0.403
 ps_wavelet_create                    1 10.0    0.000    0.000    0.385    0.402
 RS_z_slice_distribution              1 11.0    0.252    0.279    0.385    0.402
 powell_optimize                 241180 11.0    0.346    0.358    0.346    0.358
 integrate_four_center_dist_KS      468 10.9    0.036    0.040    0.330    0.348
 cp_fm_triangular_multiply           60  8.0    0.332    0.336    0.332    0.336
 mp_maxloc_dv                      1237  1.0    0.246    0.312    0.246    0.312
 integrate_four_center_getP         468 10.9    0.036    0.040    0.301    0.310
 scale_and_distribute               536 11.5    0.228    0.305    0.228    0.305
 calculate_dm_sparse                 68  6.0    0.000    0.000    0.278    0.297
 tddfpt_construct_ground_state_       1  6.0    0.000    0.000    0.278    0.278
 integrate_four_center_load         468 10.9    0.001    0.001    0.239    0.257
 hfx_load_balance                     1 11.0    0.000    0.000    0.238    0.256
 calculate_vxc_atom                  68  8.0    0.026    0.068    0.249    0.249
 dbcsr_sym_matrix_vector_mult      2095  7.0    0.015    0.016    0.230    0.248
 cp_fm_cholesky_decompose            20  8.0    0.237    0.243    0.237    0.243
 mp_allgather_i34                  1714 12.3    0.184    0.235    0.184    0.235
 init_scf_run                         1  3.0    0.000    0.000    0.230    0.231
 hfx_load_balance_range               1 12.0    0.000    0.000    0.202    0.220
 scf_env_initial_rho_setup            1  4.0    0.000    0.000    0.219    0.219
 dbcsr_finalize                   11635 11.4    0.030    0.044    0.164    0.217
 calc_pair_dist_radii                 1 10.0    0.080    0.081    0.210    0.213
 cp_fm_write_unformatted             44  7.5    0.210    0.212    0.210    0.212
 tddfpt_orthogonalize_psi1_psi0      11  6.9    0.000    0.000    0.188    0.198
 make_images_data                  3428 13.3    0.022    0.026    0.110    0.191
 mp_isend_dm3                      9696 12.9    0.062    0.191    0.062    0.191
 qs_init_subsys                       1  2.0    0.001    0.010    0.189    0.190
 qs_env_setup                         1  3.0    0.000    0.000    0.185    0.187
 qs_env_rebuild_pw_env                2  3.5    0.000    0.000    0.185    0.187
 pw_env_rebuild                       1  5.0    0.000    0.001    0.185    0.186
 qs_env_update_s_mstruct              1  4.0    0.000    0.000    0.183    0.184
 calculate_rho_core                   1  5.0    0.003    0.005    0.177    0.180
 pw_grid_setup                        4  6.0    0.000    0.000    0.177    0.178
 pw_grid_setup_internal               4  7.0    0.002    0.003    0.177    0.178
 tddfpt_is_nonorthogonal_psi1_p       9  7.0    0.000    0.000    0.174    0.175
 mp_rank_compare                   5443 14.1    0.160    0.174    0.160    0.174
 tddfpt_write_restart                 2  6.5    0.001    0.043    0.156    0.158
 pw_scale                           672  9.5    0.115    0.144    0.115    0.144
 mp_irecv_dv                      97898 13.9    0.046    0.122    0.046    0.122
 pw_grid_sort                         4  8.0    0.082    0.090    0.111    0.121
 mp_bcast_av                        618  1.0    0.003    0.008    0.034    0.120
 dbcsr_create_new                 47758 11.7    0.081    0.085    0.113    0.118
 dbcsr_merge_all                   9437 12.4    0.065    0.086    0.095    0.118
 mp_bcast_i                         619  2.0    0.031    0.117    0.031    0.117
 create_kernel_env                    1  6.0    0.000    0.000    0.098    0.114
 xc_prep_2nd_deriv                    1  7.0    0.000    0.000    0.098    0.114
 dbcsr_add_d                       3193  7.0    0.001    0.002    0.020    0.110
 dbcsr_add_anytype                 3193  8.0    0.002    0.013    0.018    0.109
 create_qs_kind_set                   1  2.0    0.000    0.000    0.104    0.105
 read_qs_kind                         4  3.0    0.038    0.051    0.104    0.105
 dbcsr_col_vec_to_rep_row          2095  8.0    0.007    0.007    0.087    0.105
 calculate_rho0_atom               1076  9.7    0.101    0.103    0.101    0.103
 mp_max_d                           250  8.4    0.061    0.091    0.061    0.091
 xc_2nd_deriv_of_r                  400 10.0    0.002    0.017    0.012    0.090
 multiply_cannon_multrec          34280 13.3    0.029    0.084    0.034    0.089
 cp_fm_symm                          68  7.0    0.083    0.088    0.083    0.088
 dbcsr_iterator_start             54043 10.7    0.052    0.063    0.063    0.083
 dbcsr_work_create                21058 12.6    0.039    0.054    0.058    0.081
 offload_free_buffer                276 10.3    0.056    0.076    0.056    0.076
 dbcsr_special_finalize           10284 13.3    0.016    0.017    0.055    0.073
 dbcsr_rep_row_to_rep_col_vec      2095  8.0    0.006    0.006    0.048    0.073
 mp_sum_iv                          474  7.1    0.066    0.070    0.066    0.070
 parser_read_line                 16670  4.0    0.003    0.003    0.066    0.067
 mp_bcast_dv                       2095  9.0    0.046    0.065    0.046    0.065
 parser_read_line_low                29  5.0    0.001    0.019    0.063    0.065
 write_mo_set_to_restart             68  5.0    0.001    0.055    0.056    0.064
 broadcast_input_information         29  6.0    0.005    0.005    0.062    0.064
 copy_fm_to_dbcsr_bc               2783 10.6    0.017    0.018    0.058    0.063
 multiply_cannon_metrocomm2       25710 13.3    0.036    0.039    0.058    0.062
 dbcsr_data_new                  178336 12.7    0.052    0.060    0.052    0.060
 mp_irecv_dm3                      9696 12.9    0.016    0.056    0.016    0.056
 write_mo_set_low                     4  6.0    0.000    0.000    0.055    0.056
 dbcsr_dot_sd                       468 10.9    0.002    0.002    0.044    0.055
 dbcsr_work_destroy_all           21058 13.5    0.028    0.037    0.040    0.054
 self_consistency_check              68  5.0    0.000    0.000    0.028    0.054
 cp_sm_mix                           68  6.0    0.000    0.000    0.028    0.054
 cp_fm_maxabsval                    180  8.0    0.000    0.000    0.034    0.053
 dbcsr_data_release              260399 12.6    0.041    0.049    0.041    0.049
 tddfpt_print_excitation_analys       1  6.0    0.000    0.002    0.048    0.048
 mp_sum_b                           936 10.7    0.044    0.047    0.044    0.047
 dbcsr_copy                       12712  8.7    0.021    0.023    0.045    0.047
 mp_bcast_b_src                     188  8.1    0.020    0.047    0.020    0.047
 mp_bcast_i_src                     116  7.0    0.038    0.046    0.038    0.046
 cp_fm_uplo_to_full                 121  9.2    0.025    0.046    0.025    0.046
 dbcsr_destroy                    43504 11.1    0.027    0.028    0.040    0.044
 scf_post_calculation_gpw             1  3.0    0.000    0.000    0.044    0.044
 write_available_results              1  4.0    0.000    0.000    0.044    0.044
 write_mo_free_results                1  5.0    0.004    0.005    0.044    0.044
 dbcsr_make_images_dense            936 11.7    0.008    0.008    0.029    0.042
 dbcsr_merge_single_wm             8570 14.3    0.020    0.027    0.025    0.042
 dbcsr_iterator_stop              54043 10.7    0.027    0.033    0.034    0.041
 cp_fm_redistribute_start           120  8.2    0.000    0.000    0.023    0.035
 -------------------------------------------------------------------------------

 The number of warnings for this run is : 1
 
 -------------------------------------------------------------------------------
  **** **** ******  **  PROGRAM ENDED AT                 2025-06-04 14:31:55.872
 ***** ** ***  *** **   PROGRAM RAN ON                                  n2cn0202
 **    ****   ******    PROGRAM RAN BY                                  metdyn02
 ***** **    ** ** **   PROGRAM PROCESS ID                               2404963
  **** **  *******  **  PROGRAM STOPPED IN /scratch/hpc-prf-metdyn/metdyn02_Remi
                                           /10_MOL/05_MOL/aUKBqsEOTmq69kFe5R_nOg
                                           /5k_set_final_qzvp/LIVZIA/SZVSR/TDDFT
                                           /RILIM
