 DBCSR| CPU Multiplication driver                                           BLAS (U)
 DBCSR| Multrec recursion limit                                              512 (U)
 DBCSR| Multiplication stack size                                           1000 (D)
 DBCSR| Maximum elements for images                                    UNLIMITED (U)
 DBCSR| Multiplicative factor virtual images                                   1 (U)
 DBCSR| Use multiplication densification                                       T (D)
 DBCSR| Multiplication size stacks                                             3 (U)
 DBCSR| Use memory pool for CPU allocation                                     F (U)
 DBCSR| Number of 3D layers                                               SINGLE (U)
 DBCSR| Use MPI memory allocation                                              F (U)
 DBCSR| Use RMA algorithm                                                      F (U)
 DBCSR| Use Communication thread                                               T (U)
 DBCSR| Communication thread load                                             75 (D)
 DBCSR| MPI: My process id                                                     0
 DBCSR| MPI: Number of processes                                              48
 DBCSR| OMP: Current number of threads                                         4
 DBCSR| OMP: Max number of threads                                             4
 DBCSR| Split modifier for TAS multiplication algorithm                  1.0E+00 (U)


  **** **** ******  **  PROGRAM STARTED AT               2025-03-19 00:23:59.232
 ***** ** ***  *** **   PROGRAM STARTED ON                          i04r10c03s05
 **    ****   ******    PROGRAM STARTED BY                               di38fab
 ***** **    ** ** **   PROGRAM PROCESS ID                               2215574
  **** **  *******  **  PROGRAM STARTED IN /hppfs/scratch/04/di38fab/05_MOL/W4-1
                                           1+ALK/allene/aug-cc-pVTZ/GW+BSE

 CP2K| version string:                 CP2K version 2025.1 (Development Version)
 CP2K| source code revision number:                                  git:d2e611a
 CP2K| cp2kflags: omp libint fftw3 libxc parallel scalapack max_contr=4         
 CP2K| is freely available from                            https://www.cp2k.org/
 CP2K| Program compiled at                       Thu 06 Mar 2025 05:09:20 PM CET
 CP2K| Program compiled on                                               login02
 CP2K| Program compiled for                                        Supermuc-foss
 CP2K| Data directory path                  /hppfs/work/pn36zo/di38fab/cp2k/data
 CP2K| Input file name                                                    GW.inp

 GLOBAL| Force Environment number                                              1
 GLOBAL| Basis set file name            /hppfs/scratch/04/di38fab/04_TMD/BASIS_A
 GLOBAL| Potential file name            /hppfs/work/pn36zo/di38fab/cp2k/data/ALL
 GLOBAL| MM Potential file name                                     MM_POTENTIAL
 GLOBAL| Coordinate file name                                      __STD_INPUT__
 GLOBAL| Method name                                                        CP2K
 GLOBAL| Project name                                                       MoS2
 GLOBAL| Run type                                                         ENERGY
 GLOBAL| FFT library                                                       FFTW3
 GLOBAL| Diagonalization library                                       ScaLAPACK
 GLOBAL| DGEMM library                                                      BLAS
 GLOBAL| Orthonormality check for eigenvectors                          DISABLED
 GLOBAL| Matrix multiplication library                                 ScaLAPACK
 GLOBAL| All-to-all communication in single precision                          F
 GLOBAL| FFTs using library dependent lengths                                  F
 GLOBAL| Grid backend                                                       AUTO
 GLOBAL| Global print level                                               MEDIUM
 GLOBAL| MPI I/O enabled                                                       T
 GLOBAL| Total number of message passing processes                            48
 GLOBAL| Number of threads for this process                                    4
 GLOBAL| This output is from process                                           0
 GLOBAL| OpenMP stack size per thread (OMP_STACKSIZE)                    default
 GLOBAL| CPU model name             Intel(R) Xeon(R) Platinum 8174 CPU @ 3.10GHz

 MEMORY| system memory details [Kb]
 MEMORY|                        rank 0           min           max       average
 MEMORY| MemTotal             98436708      98436664      98436708      98436675
 MEMORY| MemFree              83859312      83847468      84069880      83925191
 MEMORY| Buffers                     0             0             0             0
 MEMORY| Cached                2383680       2383680       2425072       2403405
 MEMORY| Slab                  1231988       1198112       1231988       1219519
 MEMORY| SReclaimable           276416        266984        276548        274074
 MEMORY| MemLikelyFree        86519408      86519408      86734916      86602670


 *** Fundamental physical constants (SI units) ***

 *** Literature: B. J. Mohr and B. N. Taylor,
 ***             CODATA recommended values of the fundamental physical
 ***             constants: 2006, Web Version 5.1
 ***             http://physics.nist.gov/constants

 Speed of light in vacuum [m/s]                             2.99792458000000E+08
 Magnetic constant or permeability of vacuum [N/A**2]       1.25663706143592E-06
 Electric constant or permittivity of vacuum [F/m]          8.85418781762039E-12
 Planck constant (h) [J*s]                                  6.62606896000000E-34
 Planck constant (h-bar) [J*s]                              1.05457162825177E-34
 Elementary charge [C]                                      1.60217648700000E-19
 Electron mass [kg]                                         9.10938215000000E-31
 Electron g factor [ ]                                     -2.00231930436220E+00
 Proton mass [kg]                                           1.67262163700000E-27
 Fine-structure constant                                    7.29735253760000E-03
 Rydberg constant [1/m]                                     1.09737315685270E+07
 Avogadro constant [1/mol]                                  6.02214179000000E+23
 Boltzmann constant [J/K]                                   1.38065040000000E-23
 Atomic mass unit [kg]                                      1.66053878200000E-27
 Bohr radius [m]                                            5.29177208590000E-11

 *** Conversion factors ***

 [u] -> [a.u.]                                              1.82288848426455E+03
 [Angstrom] -> [Bohr] = [a.u.]                              1.88972613288564E+00
 [a.u.] = [Bohr] -> [Angstrom]                              5.29177208590000E-01
 [a.u.] -> [s]                                              2.41888432650478E-17
 [a.u.] -> [fs]                                             2.41888432650478E-02
 [a.u.] -> [J]                                              4.35974393937059E-18
 [a.u.] -> [N]                                              8.23872205491840E-08
 [a.u.] -> [K]                                              3.15774647902944E+05
 [a.u.] -> [kJ/mol]                                         2.62549961709828E+03
 [a.u.] -> [kcal/mol]                                       6.27509468713739E+02
 [a.u.] -> [Pa]                                             2.94210107994716E+13
 [a.u.] -> [bar]                                            2.94210107994716E+08
 [a.u.] -> [atm]                                            2.90362800883016E+08
 [a.u.] -> [eV]                                             2.72113838565563E+01
 [a.u.] -> [Hz]                                             6.57968392072181E+15
 [a.u.] -> [1/cm] (wave numbers)                            2.19474631370540E+05
 [a.u./Bohr**2] -> [1/cm]                                   5.14048714338585E+03
 

 CELL_TOP| Volume [angstrom^3]:                                     27000.000000
 CELL_TOP| Vector a [angstrom    30.000     0.000     0.000   |a| =    30.000000
 CELL_TOP| Vector b [angstrom     0.000    30.000     0.000   |b| =    30.000000
 CELL_TOP| Vector c [angstrom     0.000     0.000    30.000   |c| =    30.000000
 CELL_TOP| Angle (b,c), alpha [degree]:                                90.000000
 CELL_TOP| Angle (a,c), beta  [degree]:                                90.000000
 CELL_TOP| Angle (a,b), gamma [degree]:                                90.000000
 CELL_TOP| Numerically orthorhombic:                                         YES
 CELL_TOP| Periodicity                                                      NONE

 GENERATE|  Preliminary Number of Bonds generated:                             0
 GENERATE|  Achieved consistency in connectivity generation.

 CELL| Volume [angstrom^3]:                                         27000.000000
 CELL| Vector a [angstrom]:      30.000     0.000     0.000   |a| =    30.000000
 CELL| Vector b [angstrom]:       0.000    30.000     0.000   |b| =    30.000000
 CELL| Vector c [angstrom]:       0.000     0.000    30.000   |c| =    30.000000
 CELL| Angle (b,c), alpha [degree]:                                    90.000000
 CELL| Angle (a,c), beta  [degree]:                                    90.000000
 CELL| Angle (a,b), gamma [degree]:                                    90.000000
 CELL| Numerically orthorhombic:                                             YES
 CELL| Periodicity                                                          NONE

 CELL_REF| Volume [angstrom^3]:                                     27000.000000
 CELL_REF| Vector a [angstrom    30.000     0.000     0.000   |a| =    30.000000
 CELL_REF| Vector b [angstrom     0.000    30.000     0.000   |b| =    30.000000
 CELL_REF| Vector c [angstrom     0.000     0.000    30.000   |c| =    30.000000
 CELL_REF| Angle (b,c), alpha [degree]:                                90.000000
 CELL_REF| Angle (a,c), beta  [degree]:                                90.000000
 CELL_REF| Angle (a,b), gamma [degree]:                                90.000000
 CELL_REF| Numerically orthorhombic:                                         YES
 CELL_REF| Periodicity                                                      NONE

 *******************************************************************************
 *******************************************************************************
 **                                                                           **
 **     #####                         ##              ##                      **
 **    ##   ##            ##          ##              ##                      **
 **   ##     ##                       ##            ######                    **
 **   ##     ##  ##   ##  ##   #####  ##  ##   ####   ##    #####    #####    **
 **   ##     ##  ##   ##  ##  ##      ## ##   ##      ##   ##   ##  ##   ##   **
 **   ##  ## ##  ##   ##  ##  ##      ####     ###    ##   ######   ######    **
 **    ##  ###   ##   ##  ##  ##      ## ##      ##   ##   ##       ##        **
 **     #######   #####   ##   #####  ##  ##  ####    ##    #####   ##        **
 **           ##                                                    ##        **
 **                                                                           **
 **                                                ... make the atoms dance   **
 **                                                                           **
 **            Copyright (C) by CP2K developers group (2000-2025)             **
 **                      J. Chem. Phys. 152, 194103 (2020)                    **
 **                                                                           **
 *******************************************************************************

 DFT| Spin restricted Kohn-Sham (RKS) calculation                            RKS
 DFT| Multiplicity                                                             1
 DFT| Number of spin states                                                    1
 DFT| Charge                                                                   0
 DFT| Self-interaction correction (SIC)                                       NO
 DFT| Cutoffs: density                                              1.000000E-10
 DFT|          gradient                                             1.000000E-10
 DFT|          tau                                                  1.000000E-10
 DFT|          cutoff_smoothing_range                               0.000000E+00
 DFT| XC density smoothing                                                  NONE
 DFT| XC derivatives                                                          PW

 FUNCTIONAL| PBE:
 FUNCTIONAL| J.P.Perdew, K.Burke, M.Ernzerhof, Phys. Rev. Letter, vol. 77, n 18,
 FUNCTIONAL|  pp. 3865-3868, (1996)sx=0.750sc=1.000{spin unpolarized}           


 QS| Method:                                                                GAPW
 QS| Density plane wave grid type                        NON-SPHERICAL FULLSPACE
 QS| Number of grid levels:                                                    4
 QS| Density cutoff [a.u.]:                                                250.0
 QS| Multi grid cutoff [a.u.]: 1) grid level                               250.0
 QS|                           2) grid level                                83.3
 QS|                           3) grid level                                27.8
 QS|                           4) grid level                                 9.3
 QS| Grid level progression factor:                                          3.0
 QS| Relative density cutoff [a.u.]:                                        50.0
 QS| Interaction thresholds: eps_pgf_orb:                                1.0E-12
 QS|                         eps_filter_matrix:                          0.0E+00
 QS|                         eps_core_charge:                            1.0E-14
 QS|                         eps_rho_gspace:                             1.0E-12
 QS|                         eps_rho_rspace:                             1.0E-12
 QS|                         eps_gvg_rspace:                             1.0E-06
 QS|                         eps_ppl:                                    1.0E-02
 QS|                         eps_ppnl:                                   1.0E-08
 QS| GAPW|      One center basis from orbital basis primitives
 QS| GAPW|                   eps_fit:                                    1.0E-04
 QS| GAPW|                   eps_iso:                                    1.0E-12
 QS| GAPW|                   eps_svd:                                    1.0E-08
 QS| GAPW|                   eps_cpc:                                    1.0E-12
 QS| GAPW|   atom-r-grid: quadrature:                                     GC_LOG
 QS| GAPW|      atom-s-grid:  max l :                                          6
 QS| GAPW|      max_l_rho0 :                                                   2


 ATOMIC KIND INFORMATION

  1. Atomic kind: C                                     Number of atoms:       3

     Orbital Basis Set                                               aug-cc-pVTZ

       Number of orbital shell sets:                                           8
       Number of orbital shells:                                              14
       Number of primitive Cartesian functions:                               22
       Number of Cartesian basis functions:                                   55
       Number of spherical basis functions:                                   46
       Norm type:                                                              2

       Normalised Cartesian orbitals:

                        Set   Shell   Orbital            Exponent    Coefficient

                          1       1    1px               0.035690       0.022112
                          1       1    1py               0.035690       0.022112
                          1       1    1pz               0.035690       0.022112

                          2       1    1s                0.044020       0.068493

                          3       1    1dx2              0.100000       0.029269
                          3       1    1dxy              0.100000       0.050696
                          3       1    1dxz              0.100000       0.050696
                          3       1    1dy2              0.100000       0.029269
                          3       1    1dyz              0.100000       0.050696
                          3       1    1dz2              0.100000       0.029269

                          4       1    1px              18.710000       0.000000
                                                         4.133000       0.000000
                                                         1.200000       0.000000
                                                         0.382700       0.429055
                                                         0.120900       0.000000
                          4       1    1py              18.710000       0.000000
                                                         4.133000       0.000000
                                                         1.200000       0.000000
                                                         0.382700       0.429055
                                                         0.120900       0.000000
                          4       1    1pz              18.710000       0.000000
                                                         4.133000       0.000000
                                                         1.200000       0.000000
                                                         0.382700       0.429055
                                                         0.120900       0.000000

                          4       2    2px              18.710000       0.778253
                                                         4.133000       0.729662
                                                         1.200000       0.519563
                                                         0.382700       0.214960
                                                         0.120900       0.034896
                          4       2    2py              18.710000       0.778253
                                                         4.133000       0.729662
                                                         1.200000       0.519563
                                                         0.382700       0.214960
                                                         0.120900       0.034896
                          4       2    2pz              18.710000       0.778253
                                                         4.133000       0.729662
                                                         1.200000       0.519563
                                                         0.382700       0.214960
                                                         0.120900       0.034896

                          4       3    3px              18.710000       0.000000
                                                         4.133000       0.000000
                                                         1.200000       0.000000
                                                         0.382700       0.000000
                                                         0.120900       0.101619
                          4       3    3py              18.710000       0.000000
                                                         4.133000       0.000000
                                                         1.200000       0.000000
                                                         0.382700       0.000000
                                                         0.120900       0.101619
                          4       3    3pz              18.710000       0.000000
                                                         4.133000       0.000000
                                                         1.200000       0.000000
                                                         0.382700       0.000000
                                                         0.120900       0.101619

                          5       1    1s             8236.000000       0.327184
                                                      1235.000000       0.609945
                                                       280.800000       1.030914
                                                        79.270000       1.549802
                                                        25.590000       1.904111
                                                         8.997000       1.608326
                                                         3.319000       0.606601
                                                         0.905900       0.026060
                                                         0.364300      -0.003002
                                                         0.128500       0.000365

                          5       2    2s             8236.000000       0.000000
                                                      1235.000000       0.000000
                                                       280.800000       0.000000
                                                        79.270000       0.000000
                                                        25.590000       0.000000
                                                         8.997000       0.000000
                                                         3.319000       0.000000
                                                         0.905900       0.661790
                                                         0.364300       0.000000
                                                         0.128500       0.000000

                          5       3    3s             8236.000000      -0.069627
                                                      1235.000000      -0.130363
                                                       280.800000      -0.221954
                                                        79.270000      -0.343330
                                                        25.590000      -0.452153
                                                         8.997000      -0.469816
                                                         3.319000      -0.298547
                                                         0.905900       0.092903
                                                         0.364300       0.200079
                                                         0.128500       0.060480

                          5       4    4s             8236.000000       0.000000
                                                      1235.000000       0.000000
                                                       280.800000       0.000000
                                                        79.270000       0.000000
                                                        25.590000       0.000000
                                                         8.997000       0.000000
                                                         3.319000       0.000000
                                                         0.905900       0.000000
                                                         0.364300       0.000000
                                                         0.128500       0.152963

                          6       1    1fx3              0.268000       0.076078
                          6       1    1fx2y             0.268000       0.170115
                          6       1    1fx2z             0.268000       0.170115
                          6       1    1fxy2             0.268000       0.170115
                          6       1    1fxyz             0.268000       0.294648
                          6       1    1fxz2             0.268000       0.170115
                          6       1    1fy3              0.268000       0.076078
                          6       1    1fy2z             0.268000       0.170115
                          6       1    1fyz2             0.268000       0.170115
                          6       1    1fz3              0.268000       0.076078

                          7       1    1dx2              1.097000       1.935401
                                                         0.318000       0.000000
                          7       1    1dxy              1.097000       3.352214
                                                         0.318000       0.000000
                          7       1    1dxz              1.097000       3.352214
                                                         0.318000       0.000000
                          7       1    1dy2              1.097000       1.935401
                                                         0.318000       0.000000
                          7       1    1dyz              1.097000       3.352214
                                                         0.318000       0.000000
                          7       1    1dz2              1.097000       1.935401
                                                         0.318000       0.000000

                          7       2    2dx2              1.097000       0.000000
                                                         0.318000       0.221644
                          7       2    2dxy              1.097000       0.000000
                                                         0.318000       0.383899
                          7       2    2dxz              1.097000       0.000000
                                                         0.318000       0.383899
                          7       2    2dy2              1.097000       0.000000
                                                         0.318000       0.221644
                          7       2    2dyz              1.097000       0.000000
                                                         0.318000       0.383899
                          7       2    2dz2              1.097000       0.000000
                                                         0.318000       0.221644

                          8       1    1fx3              0.761000       0.796288
                          8       1    1fx2y             0.761000       1.780553
                          8       1    1fx2z             0.761000       1.780553
                          8       1    1fxy2             0.761000       1.780553
                          8       1    1fxyz             0.761000       3.084008
                          8       1    1fxz2             0.761000       1.780553
                          8       1    1fy3              0.761000       0.796288
                          8       1    1fy2z             0.761000       1.780553
                          8       1    1fyz2             0.761000       1.780553
                          8       1    1fz3              0.761000       0.796288

     RI Auxiliary Basis Set                                    aug-cc-pVTZ-OPTRI

       Number of orbital shell sets:                                          18
       Number of orbital shells:                                              18
       Number of primitive Cartesian functions:                               18
       Number of Cartesian basis functions:                                  103
       Number of spherical basis functions:                                   78
       Norm type:                                                              2

       Normalised Cartesian orbitals:

                        Set   Shell   Orbital            Exponent    Coefficient

                          1       1    1px               0.053629       0.036787
                          1       1    1py               0.053629       0.036787
                          1       1    1pz               0.053629       0.036787

                          2       1    1s                0.071296       0.098335

                          3       1    1dx2              0.149738       0.059325
                          3       1    1dxy              0.149738       0.102755
                          3       1    1dxz              0.149738       0.102755
                          3       1    1dy2              0.149738       0.059325
                          3       1    1dyz              0.149738       0.102755
                          3       1    1dz2              0.149738       0.059325

                          4       1    1px               0.180551       0.167761
                          4       1    1py               0.180551       0.167761
                          4       1    1pz               0.180551       0.167761

                          5       1    1s                0.347160       0.322335

                          6       1    1dx2              0.499205       0.487975
                          6       1    1dxy              0.499205       0.845198
                          6       1    1dxz              0.499205       0.845198
                          6       1    1dy2              0.499205       0.487975
                          6       1    1dyz              0.499205       0.845198
                          6       1    1dz2              0.499205       0.487975

                          7       1    1fx3              0.506969       0.319273
                          7       1    1fx2y             0.506969       0.713917
                          7       1    1fx2z             0.506969       0.713917
                          7       1    1fxy2             0.506969       0.713917
                          7       1    1fxyz             0.506969       1.236540
                          7       1    1fxz2             0.506969       0.713917
                          7       1    1fy3              0.506969       0.319273
                          7       1    1fy2z             0.506969       0.713917
                          7       1    1fyz2             0.506969       0.713917
                          7       1    1fz3              0.506969       0.319273

                          8       1    1px               0.571981       0.709034
                          8       1    1py               0.571981       0.709034
                          8       1    1pz               0.571981       0.709034

                          9       1    1gx4              0.583231       0.252637
                          9       1    1gx3y             0.583231       0.668415
                          9       1    1gx3z             0.583231       0.668415
                          9       1    1gx2y2            0.583231       0.862920
                          9       1    1gx2yz            0.583231       1.494621
                          9       1    1gx2z2            0.583231       0.862920
                          9       1    1gxy3             0.583231       0.668415
                          9       1    1gxy2z            0.583231       1.494621
                          9       1    1gxyz2            0.583231       1.494621
                          9       1    1gxz3             0.583231       0.668415
                          9       1    1gy4              0.583231       0.252637
                          9       1    1gy3z             0.583231       0.668415
                          9       1    1gy2z2            0.583231       0.862920
                          9       1    1gyz3             0.583231       0.668415
                          9       1    1gz4              0.583231       0.252637

                         10       1    1px               1.079380       1.568224
                         10       1    1py               1.079380       1.568224
                         10       1    1pz               1.079380       1.568224

                         11       1    1s                1.350899       0.893053

                         12       1    1fx3              1.360408       2.942457
                         12       1    1fx2y             1.360408       6.579533
                         12       1    1fx2z             1.360408       6.579533
                         12       1    1fxy2             1.360408       6.579533
                         12       1    1fxyz             1.360408      11.396086
                         12       1    1fxz2             1.360408       6.579533
                         12       1    1fy3              1.360408       2.942457
                         12       1    1fy2z             1.360408       6.579533
                         12       1    1fyz2             1.360408       6.579533
                         12       1    1fz3              1.360408       2.942457

                         13       1    1gx4              1.603084       4.074414
                         13       1    1gx3y             1.603084      10.779887
                         13       1    1gx3z             1.603084      10.779887
                         13       1    1gx2y2            1.603084      13.916774
                         13       1    1gx2yz            1.603084      24.104560
                         13       1    1gx2z2            1.603084      13.916774
                         13       1    1gxy3             1.603084      10.779887
                         13       1    1gxy2z            1.603084      24.104560
                         13       1    1gxyz2            1.603084      24.104560
                         13       1    1gxz3             1.603084      10.779887
                         13       1    1gy4              1.603084       4.074414
                         13       1    1gy3z             1.603084      10.779887
                         13       1    1gy2z2            1.603084      13.916774
                         13       1    1gyz3             1.603084      10.779887
                         13       1    1gz4              1.603084       4.074414

                         14       1    1dx2              2.042078       5.741641
                         14       1    1dxy              2.042078       9.944814
                         14       1    1dxz              2.042078       9.944814
                         14       1    1dy2              2.042078       5.741641
                         14       1    1dyz              2.042078       9.944814
                         14       1    1dz2              2.042078       5.741641

                         15       1    1px               3.363437       6.492608
                         15       1    1py               3.363437       6.492608
                         15       1    1pz               3.363437       6.492608

                         16       1    1fx3              3.489720      24.503790
                         16       1    1fx2y             3.489720      54.792140
                         16       1    1fx2z             3.489720      54.792140
                         16       1    1fxy2             3.489720      54.792140
                         16       1    1fxyz             3.489720      94.902770
                         16       1    1fxz2             3.489720      54.792140
                         16       1    1fy3              3.489720      24.503790
                         16       1    1fy2z             3.489720      54.792140
                         16       1    1fyz2             3.489720      54.792140
                         16       1    1fz3              3.489720      24.503790

                         17       1    1s                3.964205       2.002291

                         18       1    1dx2              4.948435      27.022668
                         18       1    1dxy              4.948435      46.804634
                         18       1    1dxz              4.948435      46.804634
                         18       1    1dy2              4.948435      27.022668
                         18       1    1dyz              4.948435      46.804634
                         18       1    1dz2              4.948435      27.022668

       Atomic covalent radius [Angstrom]:                                  0.770

       Atomic van der Waals radius [Angstrom]:                             1.700

     The atoms of this atomic kind are PAW atoms (GAPW):
       Hard Gaussian function radius:                                      1.512
       Rho0 radius:                                                        1.512
       Maximum GTO radius used for PAW projector construction:            24.566

     GAPW Soft Basis Set                                        aug-cc-pVTZ_soft

       Number of orbital shell sets:                                           8
       Number of orbital shells:                                              14
       Number of primitive Cartesian functions:                               15
       Number of Cartesian basis functions:                                   55
       Number of spherical basis functions:                                   46
       Norm type:                                                              2

       Normalised Cartesian orbitals:

                        Set   Shell   Orbital            Exponent    Coefficient

                          1       1    1px               0.035690       0.022112
                          1       1    1py               0.035690       0.022112
                          1       1    1pz               0.035690       0.022112

                          2       1    1s                0.044020       0.068493

                          3       1    1dx2              0.100000       0.029269
                          3       1    1dxy              0.100000       0.050696
                          3       1    1dxz              0.100000       0.050696
                          3       1    1dy2              0.100000       0.029269
                          3       1    1dyz              0.100000       0.050696
                          3       1    1dz2              0.100000       0.029269

                          4       1    1px               4.133000       0.000000
                                                         1.200000       0.000000
                                                         0.382700       0.429055
                                                         0.120900       0.000000
                          4       1    1py               4.133000       0.000000
                                                         1.200000       0.000000
                                                         0.382700       0.429055
                                                         0.120900       0.000000
                          4       1    1pz               4.133000       0.000000
                                                         1.200000       0.000000
                                                         0.382700       0.429055
                                                         0.120900       0.000000

                          4       2    2px               4.133000       0.729662
                                                         1.200000       0.519563
                                                         0.382700       0.214960
                                                         0.120900       0.034896
                          4       2    2py               4.133000       0.729662
                                                         1.200000       0.519563
                                                         0.382700       0.214960
                                                         0.120900       0.034896
                          4       2    2pz               4.133000       0.729662
                                                         1.200000       0.519563
                                                         0.382700       0.214960
                                                         0.120900       0.034896

                          4       3    3px               4.133000       0.000000
                                                         1.200000       0.000000
                                                         0.382700       0.000000
                                                         0.120900       0.101619
                          4       3    3py               4.133000       0.000000
                                                         1.200000       0.000000
                                                         0.382700       0.000000
                                                         0.120900       0.101619
                          4       3    3pz               4.133000       0.000000
                                                         1.200000       0.000000
                                                         0.382700       0.000000
                                                         0.120900       0.101619

                          5       1    1s                3.319000       0.606601
                                                         0.905900       0.026060
                                                         0.364300      -0.003002
                                                         0.128500       0.000365

                          5       2    2s                3.319000       0.000000
                                                         0.905900       0.661790
                                                         0.364300       0.000000
                                                         0.128500       0.000000

                          5       3    3s                3.319000      -0.298547
                                                         0.905900       0.092903
                                                         0.364300       0.200079
                                                         0.128500       0.060480

                          5       4    4s                3.319000       0.000000
                                                         0.905900       0.000000
                                                         0.364300       0.000000
                                                         0.128500       0.152963

                          6       1    1fx3              0.268000       0.076078
                          6       1    1fx2y             0.268000       0.170115
                          6       1    1fx2z             0.268000       0.170115
                          6       1    1fxy2             0.268000       0.170115
                          6       1    1fxyz             0.268000       0.294648
                          6       1    1fxz2             0.268000       0.170115
                          6       1    1fy3              0.268000       0.076078
                          6       1    1fy2z             0.268000       0.170115
                          6       1    1fyz2             0.268000       0.170115
                          6       1    1fz3              0.268000       0.076078

                          7       1    1dx2              1.097000       1.935401
                                                         0.318000       0.000000
                          7       1    1dxy              1.097000       3.352214
                                                         0.318000       0.000000
                          7       1    1dxz              1.097000       3.352214
                                                         0.318000       0.000000
                          7       1    1dy2              1.097000       1.935401
                                                         0.318000       0.000000
                          7       1    1dyz              1.097000       3.352214
                                                         0.318000       0.000000
                          7       1    1dz2              1.097000       1.935401
                                                         0.318000       0.000000

                          7       2    2dx2              1.097000       0.000000
                                                         0.318000       0.221644
                          7       2    2dxy              1.097000       0.000000
                                                         0.318000       0.383899
                          7       2    2dxz              1.097000       0.000000
                                                         0.318000       0.383899
                          7       2    2dy2              1.097000       0.000000
                                                         0.318000       0.221644
                          7       2    2dyz              1.097000       0.000000
                                                         0.318000       0.383899
                          7       2    2dz2              1.097000       0.000000
                                                         0.318000       0.221644

                          8       1    1fx3              0.761000       0.796288
                          8       1    1fx2y             0.761000       1.780553
                          8       1    1fx2z             0.761000       1.780553
                          8       1    1fxy2             0.761000       1.780553
                          8       1    1fxyz             0.761000       3.084008
                          8       1    1fxz2             0.761000       1.780553
                          8       1    1fy3              0.761000       0.796288
                          8       1    1fy2z             0.761000       1.780553
                          8       1    1fyz2             0.761000       1.780553
                          8       1    1fz3              0.761000       0.796288

     AE Potential information for                                            ALL

       Description:                                       All-electron potential
                                          Krack, Parrinello, PCCP 2, 2105 (2000)

       Gaussian exponent of the core charge distribution:               4.109048
       Electronic configuration (s p d ...):                           4   2   0

  2. Atomic kind: H                                     Number of atoms:       4

     Orbital Basis Set                                               aug-cc-pVTZ

       Number of orbital shell sets:                                           6
       Number of orbital shells:                                               9
       Number of primitive Cartesian functions:                               11
       Number of Cartesian basis functions:                                   25
       Number of spherical basis functions:                                   23
       Norm type:                                                              2

       Normalised Cartesian orbitals:

                        Set   Shell   Orbital            Exponent    Coefficient

                          1       1    1s                0.025260       0.045158

                          2       1    1px               0.102000       0.082166
                          2       1    1py               0.102000       0.082166
                          2       1    1pz               0.102000       0.082166

                          3       1    1s               33.870000       0.000000
                                                         5.095000       0.000000
                                                         1.159000       0.000000
                                                         0.325800       0.307343
                                                         0.102700       0.000000

                          3       2    2s               33.870000       0.060718
                                                         5.095000       0.109507
                                                         1.159000       0.161468
                                                         0.325800       0.154871
                                                         0.102700       0.049575

                          3       3    3s               33.870000       0.000000
                                                         5.095000       0.000000
                                                         1.159000       0.000000
                                                         0.325800       0.000000
                                                         0.102700       0.129297

                          4       1    1dx2              0.247000       0.142439
                          4       1    1dxy              0.247000       0.246712
                          4       1    1dxz              0.247000       0.246712
                          4       1    1dy2              0.247000       0.142439
                          4       1    1dyz              0.247000       0.246712
                          4       1    1dz2              0.247000       0.142439

                          5       1    1px               1.407000       2.184277
                                                         0.388000       0.000000
                          5       1    1py               1.407000       2.184277
                                                         0.388000       0.000000
                          5       1    1pz               1.407000       2.184277
                                                         0.388000       0.000000

                          5       2    2px               1.407000       0.000000
                                                         0.388000       0.436495
                          5       2    2py               1.407000       0.000000
                                                         0.388000       0.436495
                          5       2    2pz               1.407000       0.000000
                                                         0.388000       0.436495

                          6       1    1dx2              1.057000       1.813597
                          6       1    1dxy              1.057000       3.141241
                          6       1    1dxz              1.057000       3.141241
                          6       1    1dy2              1.057000       1.813597
                          6       1    1dyz              1.057000       3.141241
                          6       1    1dz2              1.057000       1.813597

     RI Auxiliary Basis Set                                    aug-cc-pVTZ-OPTRI

       Number of orbital shell sets:                                           9
       Number of orbital shells:                                               9
       Number of primitive Cartesian functions:                                9
       Number of Cartesian basis functions:                                   34
       Number of spherical basis functions:                                   29
       Norm type:                                                              2

       Normalised Cartesian orbitals:

                        Set   Shell   Orbital            Exponent    Coefficient

                          1       1    1s                0.207674       0.219254

                          2       1    1s                0.488825       0.416654

                          3       1    1dx2              0.617513       0.708011
                          3       1    1dxy              0.617513       1.226311
                          3       1    1dxz              0.617513       1.226311
                          3       1    1dy2              0.617513       0.708011
                          3       1    1dyz              0.617513       1.226311
                          3       1    1dz2              0.617513       0.708011

                          4       1    1px               0.702626       0.916949
                          4       1    1py               0.702626       0.916949
                          4       1    1pz               0.702626       0.916949

                          5       1    1s                1.747055       1.083029

                          6       1    1dx2              1.784914       4.536696
                          6       1    1dxy              1.784914       7.857789
                          6       1    1dxz              1.784914       7.857789
                          6       1    1dy2              1.784914       4.536696
                          6       1    1dyz              1.784914       7.857789
                          6       1    1dz2              1.784914       4.536696

                          7       1    1fx3              1.918725       6.378714
                          7       1    1fx2y             1.918725      14.263237
                          7       1    1fx2z             1.918725      14.263237
                          7       1    1fxy2             1.918725      14.263237
                          7       1    1fxyz             1.918725      24.704651
                          7       1    1fxz2             1.918725      14.263237
                          7       1    1fy3              1.918725       6.378714
                          7       1    1fy2z             1.918725      14.263237
                          7       1    1fyz2             1.918725      14.263237
                          7       1    1fz3              1.918725       6.378714

                          8       1    1px               2.114191       3.633878
                          8       1    1py               2.114191       3.633878
                          8       1    1pz               2.114191       3.633878

                          9       1    1px               4.837096      10.225180
                          9       1    1py               4.837096      10.225180
                          9       1    1pz               4.837096      10.225180

       Atomic covalent radius [Angstrom]:                                  0.320

       Atomic van der Waals radius [Angstrom]:                             1.090

     The atoms of this atomic kind are PAW atoms (GAPW):
       Hard Gaussian function radius:                                      1.200
       Rho0 radius:                                                        1.200
       Maximum GTO radius used for PAW projector construction:            24.566

     GAPW Soft Basis Set                                        aug-cc-pVTZ_soft

       Number of orbital shell sets:                                           6
       Number of orbital shells:                                               9
       Number of primitive Cartesian functions:                               10
       Number of Cartesian basis functions:                                   25
       Number of spherical basis functions:                                   23
       Norm type:                                                              2

       Normalised Cartesian orbitals:

                        Set   Shell   Orbital            Exponent    Coefficient

                          1       1    1s                0.025260       0.045158

                          2       1    1px               0.102000       0.082166
                          2       1    1py               0.102000       0.082166
                          2       1    1pz               0.102000       0.082166

                          3       1    1s                5.095000       0.000000
                                                         1.159000       0.000000
                                                         0.325800       0.307343
                                                         0.102700       0.000000

                          3       2    2s                5.095000       0.109507
                                                         1.159000       0.161468
                                                         0.325800       0.154871
                                                         0.102700       0.049575

                          3       3    3s                5.095000       0.000000
                                                         1.159000       0.000000
                                                         0.325800       0.000000
                                                         0.102700       0.129297

                          4       1    1dx2              0.247000       0.142439
                          4       1    1dxy              0.247000       0.246712
                          4       1    1dxz              0.247000       0.246712
                          4       1    1dy2              0.247000       0.142439
                          4       1    1dyz              0.247000       0.246712
                          4       1    1dz2              0.247000       0.142439

                          5       1    1px               1.407000       2.184277
                                                         0.388000       0.000000
                          5       1    1py               1.407000       2.184277
                                                         0.388000       0.000000
                          5       1    1pz               1.407000       2.184277
                                                         0.388000       0.000000

                          5       2    2px               1.407000       0.000000
                                                         0.388000       0.436495
                          5       2    2py               1.407000       0.000000
                                                         0.388000       0.436495
                          5       2    2pz               1.407000       0.000000
                                                         0.388000       0.436495

                          6       1    1dx2              1.057000       1.813597
                          6       1    1dxy              1.057000       3.141241
                          6       1    1dxz              1.057000       3.141241
                          6       1    1dy2              1.057000       1.813597
                          6       1    1dyz              1.057000       3.141241
                          6       1    1dz2              1.057000       1.813597

     AE Potential information for                                            ALL

       Description:                                       All-electron potential
                                          Krack, Parrinello, PCCP 2, 2105 (2000)

       Gaussian exponent of the core charge distribution:              12.500000
       Electronic configuration (s p d ...):                           1   0   0


 MOLECULE KIND INFORMATION


 All atoms are their own molecule, skipping detailed information


 TOTAL NUMBERS AND MAXIMUM NUMBERS

  Total number of            - Atomic kinds:                                   2
                             - Atoms:                                          7
                             - Shell sets:                                    48
                             - Shells:                                        78
                             - Primitive Cartesian functions:                110
                             - Cartesian basis functions:                    265
                             - Spherical basis functions:                    230

  Maximum angular momentum of the orbital basis functions:                     3


 MODULE QUICKSTEP: ATOMIC COORDINATES IN ANGSTROM

   Atom Kind Element         X             Y             Z       Z(eff)     Mass
      1    1 C     6     15.000000     15.000000     15.000000   6.0000  12.0107
      2    1 C     6     16.310515     15.000000     15.000000   6.0000  12.0107
      3    1 C     6     13.689485     15.000000     15.000000   6.0000  12.0107
      4    2 H     1     13.133940     15.790270     15.488418   1.0000   1.0079
      5    2 H     1     13.133940     14.209730     14.511582   1.0000   1.0079
      6    2 H     1     16.866060     15.488418     14.209730   1.0000   1.0079
      7    2 H     1     16.866060     14.511582     15.790270   1.0000   1.0079



 SCF PARAMETERS         Density guess:                                    ATOMIC
                        --------------------------------------------------------
                        max_scf:                                             500
                        max_scf_history:                                       0
                        max_diis:                                              4
                        --------------------------------------------------------
                        eps_scf:                                        1.00E-06
                        eps_scf_history:                                0.00E+00
                        eps_diis:                                       1.00E-01
                        eps_eigval:                                     1.00E-05
                        --------------------------------------------------------
                        level_shift [a.u.]:                             0.000000
                        added MOs                                       219    0
                        --------------------------------------------------------
                        Mixing method:                            BROYDEN_MIXING
                                                charge density mixing in g-space
                        --------------------------------------------------------
                        No outer SCF

 PW_GRID| Information for grid number                                          1
 PW_GRID| Grid distributed over                                    48 processors
 PW_GRID| Real space group dimensions                                    48    1
 PW_GRID| the grid is blocked:                                                NO
 PW_GRID| Cutoff [a.u.]                                                    250.0
 PW_GRID| spherical cutoff:                                                   NO
 PW_GRID|   Bounds   1           -202     202                Points:         405
 PW_GRID|   Bounds   2           -202     202                Points:         405
 PW_GRID|   Bounds   3           -202     202                Points:         405
 PW_GRID| Volume element (a.u.^3)  0.2743E-02     Volume (a.u.^3)    182205.0337
 PW_GRID| Grid span                                                    FULLSPACE
 PW_GRID|   Distribution                         Average         Max         Min
 PW_GRID|   G-Vectors                          1383960.9     1384290     1383885
 PW_GRID|   G-Rays                                3417.2        3418        3417
 PW_GRID|   Real Space Points                  1383960.9     1476225     1312200

 PW_GRID| Information for grid number                                          2
 PW_GRID| Number of the reference grid                                         1
 PW_GRID| Grid distributed over                                    48 processors
 PW_GRID| Real space group dimensions                                    48    1
 PW_GRID| the grid is blocked:                                                NO
 PW_GRID| Cutoff [a.u.]                                                     83.3
 PW_GRID| spherical cutoff:                                                   NO
 PW_GRID|   Bounds   1           -120     119                Points:         240
 PW_GRID|   Bounds   2           -120     119                Points:         240
 PW_GRID|   Bounds   3           -120     119                Points:         240
 PW_GRID| Volume element (a.u.^3)  0.1318E-01     Volume (a.u.^3)    182205.0337
 PW_GRID| Grid span                                                    FULLSPACE
 PW_GRID|   Distribution                         Average         Max         Min
 PW_GRID|   G-Vectors                           288000.0      288720      287520
 PW_GRID|   G-Rays                                1200.0        1203        1198
 PW_GRID|   Real Space Points                   288000.0      288000      288000

 PW_GRID| Information for grid number                                          3
 PW_GRID| Number of the reference grid                                         1
 PW_GRID| Grid distributed over                                    48 processors
 PW_GRID| Real space group dimensions                                    48    1
 PW_GRID| the grid is blocked:                                                NO
 PW_GRID| Cutoff [a.u.]                                                     27.8
 PW_GRID| spherical cutoff:                                                   NO
 PW_GRID|   Bounds   1            -67      67                Points:         135
 PW_GRID|   Bounds   2            -67      67                Points:         135
 PW_GRID|   Bounds   3            -67      67                Points:         135
 PW_GRID| Volume element (a.u.^3)  0.7406E-01     Volume (a.u.^3)    182205.0337
 PW_GRID| Grid span                                                    FULLSPACE
 PW_GRID|   Distribution                         Average         Max         Min
 PW_GRID|   G-Vectors                            51257.8       51570       51030
 PW_GRID|   G-Rays                                 379.7         382         378
 PW_GRID|   Real Space Points                    51257.8       54675       36450

 PW_GRID| Information for grid number                                          4
 PW_GRID| Number of the reference grid                                         1
 PW_GRID| Grid distributed over                                    48 processors
 PW_GRID| Real space group dimensions                                    48    1
 PW_GRID| the grid is blocked:                                                NO
 PW_GRID| Cutoff [a.u.]                                                      9.3
 PW_GRID| spherical cutoff:                                                   NO
 PW_GRID|   Bounds   1            -40      39                Points:          80
 PW_GRID|   Bounds   2            -40      39                Points:          80
 PW_GRID|   Bounds   3            -40      39                Points:          80
 PW_GRID| Volume element (a.u.^3)  0.3559         Volume (a.u.^3)    182205.0337
 PW_GRID| Grid span                                                    FULLSPACE
 PW_GRID|   Distribution                         Average         Max         Min
 PW_GRID|   G-Vectors                            10666.7       10800       10560
 PW_GRID|   G-Rays                                 133.3         135         132
 PW_GRID|   Real Space Points                    10666.7       12800        6400

 POISSON| Solver                                                         WAVELET
 POISSON| Wavelet| Scaling function                                           40
 POISSON| Periodicity                                                       NONE

 RS_GRID| Information for grid number                                          1
 RS_GRID|   Bounds   1           -202     202                Points:         405
 RS_GRID|   Bounds   2           -202     202                Points:         405
 RS_GRID|   Bounds   3           -202     202                Points:         405
 RS_GRID| Real space distribution over                                  3 groups
 RS_GRID| Real space distribution along direction                              1
 RS_GRID| Border size                                                         35
 RS_GRID| Real space distribution over                                  4 groups
 RS_GRID| Real space distribution along direction                              2
 RS_GRID| Border size                                                         35
 RS_GRID| Real space distribution over                                  4 groups
 RS_GRID| Real space distribution along direction                              3
 RS_GRID| Border size                                                         35
 RS_GRID|   Distribution                         Average         Max         Min
 RS_GRID|   Planes                                 205.0         205         205
 RS_GRID|   Distribution                         Average         Max         Min
 RS_GRID|   Planes                                 171.2         172         171
 RS_GRID|   Distribution                         Average         Max         Min
 RS_GRID|   Planes                                 171.2         172         171

 RS_GRID| Information for grid number                                          2
 RS_GRID|   Bounds   1           -120     119                Points:         240
 RS_GRID|   Bounds   2           -120     119                Points:         240
 RS_GRID|   Bounds   3           -120     119                Points:         240
 RS_GRID| Real space distribution over                                  3 groups
 RS_GRID| Real space distribution along direction                              1
 RS_GRID| Border size                                                         37
 RS_GRID| Real space distribution over                                  4 groups
 RS_GRID| Real space distribution along direction                              2
 RS_GRID| Border size                                                         37
 RS_GRID| Real space distribution over                                  4 groups
 RS_GRID| Real space distribution along direction                              3
 RS_GRID| Border size                                                         37
 RS_GRID|   Distribution                         Average         Max         Min
 RS_GRID|   Planes                                 154.0         154         154
 RS_GRID|   Distribution                         Average         Max         Min
 RS_GRID|   Planes                                 134.0         134         134
 RS_GRID|   Distribution                         Average         Max         Min
 RS_GRID|   Planes                                 134.0         134         134

 RS_GRID| Information for grid number                                          3
 RS_GRID|   Bounds   1            -67      67                Points:         135
 RS_GRID|   Bounds   2            -67      67                Points:         135
 RS_GRID|   Bounds   3            -67      67                Points:         135
 RS_GRID| Real space fully replicated
 RS_GRID| Group size                                                           1

 RS_GRID| Information for grid number                                          4
 RS_GRID|   Bounds   1            -40      39                Points:          80
 RS_GRID|   Bounds   2            -40      39                Points:          80
 RS_GRID|   Bounds   3            -40      39                Points:          80
 RS_GRID| Real space fully replicated
 RS_GRID| Group size                                                           1

  HFX_INFO| Replica ID:                                                        1
  HFX_INFO| FRACTION:                                               0.2500000000
  HFX_INFO| Interaction Potential:                                       COULOMB
  HFX_INFO| EPS_SCHWARZ:                                                 1.0E-10
  HFX_INFO| EPS_SCHWARZ_FORCES                                           1.0E-08
  HFX_INFO| EPS_STORAGE_SCALING:                                         1.0E+00
  HFX_INFO| NBINS:                                                            64
  HFX_INFO| BLOCK_SIZE:                                                        1
  HFX_INFO| Number of periodic shells considered:                           NONE
  HFX_INFO| Number of periodic cells considered:                            NONE

 
 RI-RPA| using GPW style
 

 OVERLAP MATRIX CONDITION NUMBER
 1-Norm Condition Number (Estimate)
   CN : |A|*|A^-1|:  2.623E+001 *  2.280E+005   = 5.981E+006  Log(1-CN):  6.7767
 1-Norm and 2-Norm Condition Numbers using Diagonalization
   CN : |A|*|A^-1|:  2.623E+001 *  2.280E+005   = 5.981E+006  Log(1-CN):  6.7767
   CN : max/min ev:  1.232E+001 /  7.880E-006   = 1.564E+006  Log(2-CN):  6.1942

 Number of electrons:                                                         22
 Number of occupied orbitals:                                                 11
 Number of molecular orbitals:                                               230

 Number of orbital functions:                                                230

 *** WARNING in qs_scf_initialization.F:1022 :: The numerical rank of the  ***
 *** overlap matrix is lower than the number of requested MOs! Reduce the  ***
 *** number of MOs to the number of available MOs. If necessary, request a ***
 *** lower number of MOs or increase EPS_DEFAULT or EPS_PGF_ORB.           ***

 Number of independent orbital functions:                                    229

 Extrapolation method: initial_guess

 Atomic guess: The first density matrix is obtained in terms of atomic orbitals
               and electronic configurations assigned to each atomic kind

 Guess for atomic kind: C

 Electronic structure
    Total number of core electrons                                          0.00
    Total number of valence electrons                                       6.00
    Total number of electrons                                               6.00
    Multiplicity                                                   not specified
    S      2.00  2.00
    P      2.00


 *******************************************************************************
                  Iteration          Convergence                     Energy [au]
 *******************************************************************************
                          1        0.107919                     -37.407214584056
                          2        0.944601E-01                 -37.411974260121
                          3        0.135126E-02                 -37.422101193838
                          4        0.254792E-03                 -37.422104372202
                          5        0.563522E-05                 -37.422104444613
                          6        0.107896E-06                 -37.422104444674

 Energy components [Hartree]           Total Energy ::          -37.422104444674
                                        Band Energy ::          -21.296184300047
                                     Kinetic Energy ::           37.178589977108
                                   Potential Energy ::          -74.600694421782
                                      Virial (-V/T) ::            2.006549857531
                                        Core Energy ::          -50.317487522836
                                          XC Energy ::           -4.728464131958
                                     Coulomb Energy ::           17.623847210120

 Orbital energies  State     L     Occupation   Energy[a.u.]          Energy[eV]

                       1     0          2.000      -9.947922         -270.696712
                       2     0          2.000      -0.501180          -13.637806

                       1     1          2.000      -0.198990           -5.414805


 Total Electron Density at R=0:                                       120.710098

 Guess for atomic kind: H

 Electronic structure
    Total number of core electrons                                          0.00
    Total number of valence electrons                                       1.00
    Total number of electrons                                               1.00
    Multiplicity                                                   not specified
    S      1.00


 *******************************************************************************
                  Iteration          Convergence                     Energy [au]
 *******************************************************************************
                          1        0.899984E-02                  -0.445273676984
                          2        0.831993E-03                  -0.445370735705
                          3        0.104223E-03                  -0.445373223017
                          4        0.123824E-06                  -0.445373248884

 Energy components [Hartree]           Total Energy ::           -0.445373248884
                                        Band Energy ::           -0.233121027105
                                     Kinetic Energy ::            0.424055116706
                                   Potential Energy ::           -0.869428365590
                                      Virial (-V/T) ::            2.050272078646
                                        Core Energy ::           -0.495782636313
                                          XC Energy ::           -0.232278681357
                                     Coulomb Energy ::            0.282688068786

 Orbital energies  State     L     Occupation   Energy[a.u.]          Energy[eV]

                       1     0          1.000      -0.233121           -6.343546


 Total Electron Density at R=0:                                         0.244200
 Re-scaling the density matrix to get the right number of electrons
                  # Electrons              Trace(P)               Scaling factor
                           22                22.000                        1.000


 SCF WAVEFUNCTION OPTIMIZATION

  Step     Update method      Time    Convergence         Total energy    Change
  ------------------------------------------------------------------------------

  HFX_MEM_INFO| Est. max. program size before HFX [MiB]:                    1331
  HFX_MEM_INFO| Number of cart. primitive ERI's calculated:           1538773152
  HFX_MEM_INFO| Number of sph. ERI's calculated:                       492085269
  HFX_MEM_INFO| Number of sph. ERI's stored in-core:                   492085269
  HFX_MEM_INFO| Number of sph. ERI's stored on disk:                           0
  HFX_MEM_INFO| Number of sph. ERI's calculated on the fly:                    0
  HFX_MEM_INFO| Total memory consumption ERI's RAM [MiB]:                   1606
  HFX_MEM_INFO| Whereof max-vals [MiB]:                                        2
  HFX_MEM_INFO| Total compression factor ERI's RAM:                         2.34
  HFX_MEM_INFO| Total memory consumption ERI's disk [MiB]:                     0
  HFX_MEM_INFO| Total compression factor ERI's disk:                        0.00
  HFX_MEM_INFO| Size of density/Fock matrix [MiB]:                             0
  HFX_MEM_INFO| Size of buffers [MiB]:                                         0
  HFX_MEM_INFO| Est. max. program size after HFX  [MiB]:                    1873

     1 NoMix/Diag. 0.10E+00    7.8     0.82423516      -117.0054237943 -1.17E+02
     2 Broy./Diag. 0.10E+00    2.7     0.10135470      -113.5742229238  3.43E+00
     3 Broy./Diag. 0.10E+00    2.8     0.45708286      -111.3151166390  2.26E+00
     4 Broy./Diag. 0.10E+00    2.9     0.28832173      -111.5403661008 -2.25E-01
     5 Broy./Diag. 0.10E+00    2.8     0.17436674      -113.1492974211 -1.61E+00
     6 Broy./Diag. 0.10E+00    2.8     0.05731609      -113.7987486946 -6.49E-01
     7 Broy./Diag. 0.10E+00    2.8     0.02020304      -113.9351035507 -1.36E-01
     8 Broy./Diag. 0.10E+00    2.9     0.09843015      -114.5665796293 -6.31E-01
     9 Broy./Diag. 0.10E+00    2.9     0.07917797      -115.4554468829 -8.89E-01
    10 Broy./Diag. 0.10E+00    3.0     0.01705850      -115.8381233253 -3.83E-01
    11 Broy./Diag. 0.10E+00    3.0     0.03932420      -116.1267632089 -2.89E-01
    12 Broy./Diag. 0.10E+00    2.9     0.01439923      -116.3900223790 -2.63E-01
[...]
 Proc. IEEE 93, 216-231 (2005).
 The design and implementation of FFTW3.
 https://doi.org/10.1109/JPROC.2004.840301

 M. Krack, M. Parrinello.
 Phys. Chem. Chem. Phys. 2, 2105-2112 (2000).
 All-electron ab-initio molecular dynamics.
 https://doi.org/10.1039/b001167n

 G. Lippert, J. Hutter, M. Parrinello.
 Theor. Chem. Acc. 103, 124-140 (1999).
 The Gaussian and augmented-plane-wave density functional method for ab initio 
 molecular dynamics simulations.
 https://doi.org/10.1007/s002140050523

 J. P. Perdew, K. Burke, M. Ernzerhof.
 Phys. Rev. Lett. 77, 3865-3868 (1996).
 Generalized gradient approximation made simple.
 https://doi.org/10.1103/PhysRevLett.77.3865


 -------------------------------------------------------------------------------
 -                                                                             -
 -                                T I M I N G                                  -
 -                                                                             -
 -------------------------------------------------------------------------------
 SUBROUTINE                       CALLS  ASD         SELF TIME        TOTAL TIME
                                MAXIMUM       AVERAGE  MAXIMUM  AVERAGE  MAXIMUM
 CP2K                                 1  1.0    0.037    0.069  275.974  275.974
 qs_energies                          1  2.0    0.001    0.001  274.448  274.672
 scf_env_do_scf                       1  3.0    0.000    0.000  251.626  251.629
 scf_env_do_scf_inner_loop           83  4.0    0.002    0.005  251.625  251.628
 qs_ks_build_kohn_sham_matrix        84  7.0    0.013    0.014  190.702  190.711
 qs_ks_update_qs_env                 83  5.0    0.001    0.001  189.241  189.250
 rebuild_ks_matrix                   83  6.0    0.000    0.000  189.234  189.243
 fft_wrap_pw1pw2                   1755  9.9    0.039    0.048   99.703  101.190
 fft_wrap_pw1pw2_250               1251 11.1    4.303    4.771   96.478   97.593
 fft3d_ps                          1755 11.9   39.467   43.520   80.238   81.367
 pw_poisson_solve                    84  8.0    1.495    1.648   72.834   72.865
 qs_vxc_create                       84  8.0    0.001    0.001   59.578   59.578
 xc_vxc_pw_create                    83  9.0    1.048    1.190   59.577   59.577
 ps_wavelet_solve                    84  9.0   37.804   42.687   48.572   48.902
 xc_pw_derive                       498 11.0    0.005    0.007   43.416   44.565
 mp_alltoall_d54                     84 10.0    7.074   37.830    7.074   37.830
 mp_alltoall_z22v                  1755 13.9   31.255   35.113   31.255   35.113
 qs_rho_update_rho_low               84  5.0    0.001    0.001   31.558   31.560
 calculate_rho_elec                  84  6.0    0.821    0.875   31.372   31.375
 xc_pw_divergence                    83 10.0    0.003    0.004   29.515   30.722
 xc_rho_set_and_dset_create          83 10.0    0.748    1.007   28.374   29.476
 gspace_mixing                       82  5.0    0.801    0.854   29.338   29.338
 density_rs2pw                       84  7.0    0.005    0.007   22.162   23.144
 x_to_yz                            918 13.1    6.693    7.329   21.617   22.406
 yz_to_x                            837 12.8    2.796    3.368   19.126   22.392
 broyden_mixing                      82  6.0   21.853   22.283   22.219   22.326
 mp2_main                             1  3.0    0.000    0.000   21.410   21.634
 sum_up_and_integrate                84  8.0    0.001    0.001   20.666   20.704
 integrate_v_rspace                  84  9.0    0.002    0.003   20.421   20.547
 mp2_gpw_main                         1  4.0    0.000    0.000   19.710   19.720
 rpa_ri_compute_en                    1  5.0    0.000    0.000   19.188   19.188
 rpa_num_int                          1  6.0    0.001    0.002   19.098   19.103
 compute_GW_self_energy             100  7.0    0.001    0.002   17.119   17.244
 compute_GW_self_energy_deep        100  8.0   12.970   13.036   16.909   17.034
 potential_pw2rs                     84 10.0    0.043    0.048   16.364   16.532
 prepare_gapw_den                    84  8.0    0.001    0.002   12.929   13.149
 put_rho0_on_grid                    84  9.0    0.831    0.902   11.924   12.144
 transfer_pw2rs                     421 10.6    0.006    0.007   11.879   12.048
 transfer_rs2pw                     421  8.4    0.008    0.013   10.805   11.636
 mp_alltoall_d11v                  1608  9.5    6.785   11.002    6.785   11.002
 mp_waitany                       11132 11.5    9.608   10.745    9.608   10.745
 hfx_ks_matrix                       84  8.0    0.003    0.003    9.972   10.049
 integrate_four_center               84  9.0    1.698    3.734    9.964   10.035
 grid_collocate_task_list            84  7.0    8.068   10.003    8.068   10.003
 transfer_rs2pw_250                 169 10.0    2.522    2.819    7.653    8.477
 transfer_pw2rs_250                 169 11.0    2.516    2.726    7.855    8.168
 xc_functional_eval                 249 10.8    0.001    0.001    5.941    6.733
 pbe_lda_eval                       249 11.8    5.940    6.733    5.940    6.733
 pw_scatter_p                       918 12.1    6.588    6.681    6.588    6.681
 mp_alltoall_d45                     85 10.0    3.392    6.648    3.392    6.648
 pw_gather_p                        837 11.8    5.523    6.354    5.523    6.354
 mp_sync                            869  9.6    3.665    5.621    3.665    5.621
 integrate_vhg0_rspace               84  8.0    0.122    0.138    5.374    5.397
 pw_derive                          750 11.3    4.824    5.226    4.824    5.226
 mp_sum_d                          5007  6.8    3.573    4.730    3.573    4.730
 parallel_gemm_fm                   387  8.4    0.001    0.001    4.479    4.583
 parallel_gemm_fm_gemm              387  9.4    0.001    0.001    4.478    4.582
 cp_fm_gemm                         387 10.4    4.477    4.581    4.477    4.581
 integrate_four_center_main          84 10.0    0.103    1.755    2.285    4.347
 integrate_four_center_bin        24444 11.0    2.181    4.300    2.181    4.300
 rs_gather_matrices                  84 10.0    0.008    0.011    3.496    4.075
 grid_integrate_task_list            84 10.0    0.558    4.010    0.558    4.010
 cp2k_distribution_to_z_slices       84  9.0    1.561    1.645    2.940    3.149
 pw_copy                           1255 10.6    2.873    3.062    2.873    3.062
 fft_wrap_pw1pw2_90                 168 10.5    0.122    0.144    2.580    2.958
 pw_poisson_set                      85  8.9    0.003    0.004    2.669    2.700
 cp_fm_syevd                         89  7.0    0.001    0.001    2.612    2.619
 cp_fm_redistribute_end              89  8.0    1.290    2.536    1.297    2.541
 cp_fm_syevd_base                    89  8.0    1.238    2.481    1.238    2.481
 rs_grid_zero                       422 11.2    2.244    2.355    2.244    2.355
 transfer_pw2rs_90                   84 12.0    0.456    0.503    1.660    2.215
 mp_waitall_1                     26510 12.0    1.438    2.094    1.438    2.094
 pw_axpy                            835  9.3    1.862    2.005    1.862    2.005
 qs_scf_new_mos                      83  5.0    0.001    0.001    1.930    1.938
 pw_copy_to_array                   837 11.8    1.732    1.908    1.732    1.908
 calculate_vxc_atom                  84  8.0    0.046    0.242    1.847    1.848
 transfer_pw2rs_30                   84 12.0    1.144    1.244    1.744    1.814
 calc_screening_functions             1 10.0    1.047    1.095    1.620    1.669
 eigensolver_symm                    84  6.0    0.003    0.003    1.621    1.624
 transfer_rs2pw_90                   84  9.0    0.385    0.455    1.373    1.587
 gaVxcgb_GC                          83  9.0    0.124    1.530    0.124    1.530
 mp_sum_dm                         1852  7.6    0.915    1.510    0.915    1.510
 pw_integral_ab_c1d_c1d_gs           84  9.0    1.233    1.242    1.353    1.477
 compute_vec_Sigma_x_minus_vxc_       1  4.0    0.000    0.000    1.473    1.473
 pw_copy_from_array                 918 12.1    1.133    1.379    1.133    1.379
 transfer_rs2pw_30                   84  9.0    0.658    0.692    1.339    1.371
 start_bse_calculation                1  7.0    0.000    0.000    1.368    1.368
 pw_poisson_rebuild                  84  9.0    0.000    0.000    1.109    1.135
 ps_wavelet_create                    1 10.0    0.000    0.000    1.109    1.135
 RS_z_slice_distribution              1 11.0    0.990    1.040    1.109    1.135
 mp_irecv_dm3                      3036 11.5    0.462    1.049    0.462    1.049
 mp_sendrecv_dv                    7896 10.0    0.975    1.028    0.975    1.028
 powell_optimize                 382709 11.0    0.942    0.997    0.942    0.997
 calculate_rho_atom                 168  9.0    0.396    0.898    0.396    0.898
 pw_zero                            500 10.3    0.809    0.897    0.809    0.897
 mp_isend_dv                      11046 11.9    0.512    0.863    0.512    0.863
 mp_sum_dv                         9625  9.7    0.666    0.774    0.666    0.774
 create_qs_kind_set                   1  2.0    0.000    0.000    0.746    0.747
 read_qs_kind                         2  3.0    0.411    0.418    0.746    0.747
 mp_isend_dm3                      3036 11.5    0.388    0.732    0.388    0.732
 create_hermitian_form_of_ABBA        1  8.0    0.000    0.000    0.667    0.670
 init_scf_run                         1  3.0    0.000    0.000    0.654    0.654
 transfer_pw2rs_10                   84 12.0    0.289    0.315    0.613    0.650
 qs_energies_init_hamiltonians        1  3.0    0.000    0.000    0.642    0.642
 build_core_hamiltonian_matrix        1  4.0    0.000    0.000    0.636    0.637
 overlap_condnum                      1  5.0    0.000    0.001    0.632    0.634
 scf_env_initial_rho_setup            1  4.0    0.000    0.000    0.627    0.627
 cp_fm_power                          2  7.5    0.010    0.013    0.613    0.617
 calc_pair_dist_radii                 1 10.0    0.189    0.192    0.558    0.612
 diagonalize_C                        1  8.0    0.000    0.000    0.593    0.593
 arnoldi_conjugate_gradient           5  6.0    0.016    0.018    0.583    0.583
 mp_isendrecv_dv                  15792 12.0    0.283    0.570    0.283    0.570
 Vh_1c_gg_integrals                  84  8.0    0.017    0.149    0.353    0.524
 fft_wrap_pw1pw2_30                 168 10.5    0.020    0.024    0.490    0.508
 mp2_ri_gpw_compute_in                1  5.0    0.001    0.001    0.500    0.500
 mp2_ri_gpw_compute_in_loop           1  6.0    0.000    0.000    0.491    0.491
 rpa_num_int_RPA_matrix_operati     100  7.0    0.001    0.003    0.465    0.465
 transfer_rs2pw_10                   84  9.0    0.137    0.149    0.431    0.453
 qs_init_subsys                       1  2.0    0.004    0.005    0.446    0.447
 scale_and_distribute               168 10.0    0.420    0.445    0.420    0.445
 qs_env_setup                         1  3.0    0.000    0.000    0.434    0.436
 qs_env_rebuild_pw_env                2  3.5    0.000    0.000    0.432    0.434
 pw_env_rebuild                       1  5.0    0.001    0.001    0.432    0.434
 pw_grid_setup                        4  6.0    0.000    0.000    0.418    0.419
 pw_grid_setup_internal               4  7.0    0.010    0.013    0.418    0.419
 mp2_main_alloc_hfx                   1  4.0    0.175    0.399    0.175    0.399
 mp_sum_i                            19  9.5    0.225    0.399    0.225    0.399
 restraint_control                    1  2.0    0.000    0.000    0.224    0.398
 mp_max_i                           601  3.0    0.253    0.388    0.253    0.388
 contract_B_L                         4  7.0    0.005    0.006    0.300    0.361
 dbcsr_sym_matrix_vector_mult      2256  7.0    0.036    0.038    0.345    0.356
 calc_mat_Q                         100  8.0    0.000    0.000    0.344    0.353
 contract_S_to_Q                    100  9.0    0.001    0.001    0.332    0.340
 parser_read_line                 88187  4.0    0.030    0.032    0.336    0.340
 pw_grid_sort                         4  8.0    0.224    0.228    0.319    0.324
 parser_read_line_low                98  5.0    0.021    0.137    0.305    0.310
 pw_scale                           333  9.5    0.229    0.299    0.229    0.299
 broadcast_input_information         98  6.0    0.066    0.076    0.285    0.294
 calculate_dm_sparse                 83  6.0    0.001    0.001    0.225    0.232
 cp_dbcsr_plus_fm_fm_t               83  7.0    0.001    0.001    0.224    0.231
 mp2_eri_3c_integrate                 1  7.0    0.005    0.007    0.110    0.220
 integrate_set_3c                  5280  8.0    0.092    0.188    0.105    0.213
 mp_cart_create                     442 10.2    0.147    0.208    0.148    0.208
 dbcsr_multiply_generic             152  8.1    0.007    0.007    0.197    0.206
 cp_fm_cholesky_invert              101  8.0    0.189    0.202    0.189    0.202
 dbcsr_add_d                       3453  7.0    0.003    0.004    0.041    0.200
 dbcsr_add_anytype                 3453  8.0    0.006    0.026    0.038    0.197
 dbt_pgrid_create_expert             84 10.8    0.000    0.000    0.129    0.189
 calculate_rho_atom_coeff            84  6.0    0.020    0.035    0.184    0.184
 integrate_four_center_getP          84 10.0    0.011    0.013    0.150    0.158
 dbcsr_complete_redistribute        296  8.4    0.018    0.021    0.149    0.153
 update_ks_atom                      84  8.0    0.013    0.022    0.130    0.153
 mixing_init                          1  5.0    0.146    0.151    0.150    0.151
 dbt_total                            8  8.0    0.000    0.000    0.147    0.147
 mp_bcast_i_src                     392  7.0    0.121    0.142    0.121    0.142
 dbcsr_finalize                    5052 10.4    0.012    0.047    0.042    0.140
 integrate_four_center_dist_KS       84 10.0    0.011    0.012    0.138    0.140
 mp_bcast_dm                       1176  9.0    0.116    0.140    0.116    0.140
 copy_dbcsr_to_fm                   126  6.6    0.002    0.002    0.130    0.137
 fft_wrap_pw1pw2_10                 168 10.5    0.004    0.005    0.116    0.135
 dbcsr_col_vec_to_rep_row          2256  8.0    0.016    0.018    0.107    0.130
 mp_irecv_dv                      11042 11.9    0.062    0.127    0.062    0.127
 dbt_contract                         4  9.0    0.001    0.001    0.122    0.123
 xc_pw_smooth                        83 10.0    0.000    0.000    0.088    0.118
 scf_post_calculation_gpw             1  3.0    0.000    0.000    0.116    0.116
 write_available_results              1  4.0    0.000    0.000    0.115    0.116
 write_mo_free_results                1  5.0    0.012    0.014    0.115    0.116
 mp_bcast_am_src                     98  7.0    0.082    0.090    0.094    0.107
 compute_Erpa_by_freq_int           100  8.0    0.001    0.002    0.107    0.107
 cp_fm_cholesky_decompose           102  9.0    0.106    0.107    0.106    0.107
 calculate_rho0_atom                168  9.0    0.103    0.106    0.103    0.106
 dbcsr_rep_row_to_rep_col_vec      2256  8.0    0.012    0.014    0.073    0.104
 mp_sum_l                          1098  6.5    0.077    0.099    0.077    0.099
 sort_shells                          4  9.0    0.095    0.097    0.095    0.097
 make_m2s                           304  9.1    0.005    0.005    0.092    0.096
 cp_fm_to_fm_submat_general         112 10.1    0.073    0.094    0.073    0.094
 mp_bcast_dv                       2345  9.0    0.074    0.094    0.074    0.094
 create_integ_mat                     4  6.0    0.001    0.001    0.089    0.093
 array2fm                             4  7.0    0.000    0.000    0.081    0.091
 cp_fm_redistribute_start            89  8.0    0.057    0.065    0.077    0.090
 copy_fm_to_dbcsr                   170  8.1    0.001    0.001    0.081    0.085
 dbt_tas_multiply                     8 11.5    0.000    0.000    0.083    0.083
 dbt_tas_total                        8 12.5    0.001    0.002    0.083    0.083
 integrate_four_center_load          84 10.0    0.000    0.001    0.060    0.080
 hfx_load_balance                     1 11.0    0.000    0.000    0.060    0.080
 multiply_cannon                    152  9.1    0.011    0.012    0.072    0.079
 hfx_load_balance_range               1 12.0    0.000    0.001    0.053    0.073
 offload_free_buffer                 92  8.5    0.044    0.068    0.044    0.068
 dbcsr_merge_all                   4226 11.1    0.016    0.054    0.023    0.067
 dbcsr_iterator_start             29299  8.9    0.037    0.054    0.043    0.064
 dbcsr_desymmetrize_deep            128  7.6    0.004    0.005    0.056    0.062
 dbcsr_copy                        9783  7.6    0.035    0.037    0.057    0.061
 make_images                        304 10.1    0.011    0.012    0.051    0.055
 dbt_copy                            12 10.1    0.000    0.000    0.052    0.054
 array2fm_info                        4  8.0    0.040    0.052    0.041    0.053
 multiply_cannon_loop               152 10.1    0.007    0.008    0.048    0.053
 pw_grid_assign                       4  8.0    0.050    0.051    0.051    0.052
 cp_fm_symm                          84  7.0    0.047    0.051    0.047    0.051
 calculate_hirshfeld_normalizat       1  6.0    0.001    0.003    0.049    0.050
 vxc_of_r_new                       166  9.0    0.001    0.008    0.007    0.050
 hirshfeld_integration                1  6.0    0.001    0.002    0.049    0.049
 create_B                             1  8.0    0.000    0.000    0.045    0.047
 create_A                             1  8.0    0.001    0.001    0.044    0.047
 hybrid_alltoall_any                432 11.0    0.011    0.013    0.041    0.044
 fm_general_add_bse                   5 10.2    0.000    0.000    0.039    0.044
 dbcsr_iterator_stop              29299  8.9    0.027    0.035    0.032    0.041
 mp_alltoall_i11v                  1016  9.3    0.039    0.039    0.039    0.039
 dbcsr_create_new                 12469  9.0    0.028    0.029    0.036    0.038
 dbt_tas_estimate_result_nze          4 12.0    0.001    0.002    0.036    0.036
 cp_fm_uplo_to_full                 103  8.0    0.019    0.036    0.019    0.036
 mp_alltoall_i22                    424  9.2    0.024    0.036    0.024    0.036
 cp_fm_syrk                           2  8.5    0.034    0.036    0.034    0.036
 dbt_tas_dbm                          8 13.5    0.000    0.000    0.035    0.035
 rs_scatter_matrices                 84  7.0    0.001    0.002    0.030    0.035
 dbm_multiply                         8 15.5    0.031    0.034    0.031    0.034
 mp_comm_split_direct                48 14.5    0.023    0.033    0.023    0.033
 dbt_tas_mm_1N                        6 14.5    0.000    0.000    0.030    0.033
 dbt_reshape                          8 11.6    0.010    0.011    0.031    0.032
 create_fast_col_vec_access        4512  8.0    0.018    0.020    0.028    0.030
 create_fast_row_vec_access        4512  8.0    0.018    0.019    0.028    0.030
 dbt_split_blocks_generic            20  8.8    0.009    0.010    0.028    0.030
 mp2_main_free_hfx                    1  4.0    0.011    0.029    0.011    0.029
 dbcsr_sym_matrix_vector_mult_l    2256  8.0    0.010    0.022    0.017    0.029
 -------------------------------------------------------------------------------

 The number of warnings for this run is : 2
 
 -------------------------------------------------------------------------------
  **** **** ******  **  PROGRAM ENDED AT                 2025-03-19 00:28:35.852
 ***** ** ***  *** **   PROGRAM RAN ON                              i04r10c03s05
 **    ****   ******    PROGRAM RAN BY                                   di38fab
 ***** **    ** ** **   PROGRAM PROCESS ID                               2215574
  **** **  *******  **  PROGRAM STOPPED IN /hppfs/scratch/04/di38fab/05_MOL/W4-1
                                           1+ALK/allene/aug-cc-pVTZ/GW+BSE
