SIRIUS 7.5.2, git hash: https://api.github.com/repos/electronic-structure/SIRIUS/git/ref/tags/v7.5.2
 DBCSR| CPU Multiplication driver                                           XSMM (U)
 DBCSR| Multrec recursion limit                                              512 (U)
 DBCSR| Multiplication stack size                                           1000 (D)
 DBCSR| Maximum elements for images                                    UNLIMITED (U)
 DBCSR| Multiplicative factor virtual images                                   1 (U)
 DBCSR| Use multiplication densification                                       T (D)
 DBCSR| Multiplication size stacks                                             3 (U)
 DBCSR| Use memory pool for CPU allocation                                     F (U)
 DBCSR| Number of 3D layers                                               SINGLE (U)
 DBCSR| Use MPI memory allocation                                              F (U)
 DBCSR| Use RMA algorithm                                                      F (U)
 DBCSR| Use Communication thread                                               T (U)
 DBCSR| Communication thread load                                             75 (D)
 DBCSR| MPI: My process id                                                     0
 DBCSR| MPI: Number of processes                                             192
 DBCSR| OMP: Current number of threads                                         4
 DBCSR| OMP: Max number of threads                                             4
 DBCSR| Split modifier for TAS multiplication algorithm                  1.0E+00 (U)


  **** **** ******  **  PROGRAM STARTED AT               2025-03-21 02:14:41.616
 ***** ** ***  *** **   PROGRAM STARTED ON                              n2cn0487
 **    ****   ******    PROGRAM STARTED BY                              metdyn02
 ***** **    ** ** **   PROGRAM PROCESS ID                                 38326
  **** **  *******  **  PROGRAM STARTED IN /scratch/hpc-prf-metdyn/metdyn02_Remi
                                           /10_MOL/05_MOL/aUKBqsEOTmq69kFe5R_nOg
                                           /5k_set_final_qzvp/VIFRUX01/TZVP/TDDF
                                           T/RILIM

 CP2K| version string:                 CP2K version 2025.1 (Development Version)
 CP2K| source code revision number:                                  git:f0c7327
 CP2K| cp2kflags: omp libint fftw3 libxc libgrpp elpa parallel scalapack mpi_f08
 CP2K|             cosma xsmm plumed2 spglib sirius libvori libbqb libvdwxc hdf5
 CP2K| is freely available from                            https://www.cp2k.org/
 CP2K| Program compiled at                          Wed Mar 12 18:25:30 CET 2025
 CP2K| Program compiled on                                              n2login1
 CP2K| Program compiled for                                                local
 CP2K| Data directory path    /opt/software/pc2/EB-SW/software/CP2K/2024.1-foss-
 CP2K| Input file name                                                    GW.inp

 GLOBAL| Force Environment number                                              1
 GLOBAL| Basis set file name            /scratch/hpc-prf-metdyn/metdyn02_Remi/BA
 GLOBAL| Potential file name            /pc2/groups/hpc-prf-metdyn/metdyn02_Remi
 GLOBAL| MM Potential file name                                     MM_POTENTIAL
 GLOBAL| Coordinate file name                                      __STD_INPUT__
 GLOBAL| Method name                                                        CP2K
 GLOBAL| Project name                                                       MoS2
 GLOBAL| Run type                                                         ENERGY
 GLOBAL| FFT library                                                       FFTW3
 GLOBAL| Diagonalization library                                            ELPA
 GLOBAL| DGEMM library                                                      BLAS
 GLOBAL| Minimum number of eigenvectors for ELPA usage                        16
 GLOBAL| Orthonormality check for eigenvectors                          DISABLED
 GLOBAL| Matrix multiplication library                                     COSMA
 GLOBAL| All-to-all communication in single precision                          F
 GLOBAL| FFTs using library dependent lengths                                  F
 GLOBAL| Grid backend                                                       AUTO
 GLOBAL| Global print level                                               MEDIUM
 GLOBAL| MPI I/O enabled                                                       T
 GLOBAL| Total number of message passing processes                           192
 GLOBAL| Number of threads for this process                                    4
 GLOBAL| This output is from process                                           0
 GLOBAL| OpenMP stack size per thread (OMP_STACKSIZE)                    default
 GLOBAL| CPU model name                          AMD EPYC 7763 64-Core Processor
 GLOBAL| CPUID                                                              1002

 MEMORY| system memory details [Kb]
 MEMORY|                        rank 0           min           max       average
 MEMORY| MemTotal            263899260     263899260     263899264     263899263
 MEMORY| MemFree             243223452     240999412     246624320     243534844
 MEMORY| Buffers                131288        113996        202952        145648
 MEMORY| Cached                6270688       5270604       8538008       6872223
 MEMORY| Slab                  2613708       1569868       2613708       2199980
 MEMORY| SReclaimable           835580        278104        835580        516963
 MEMORY| MemLikelyFree       250461008     250168352     252313788     251069678


 *** Fundamental physical constants (SI units) ***

 *** Literature: B. J. Mohr and B. N. Taylor,
 ***             CODATA recommended values of the fundamental physical
 ***             constants: 2006, Web Version 5.1
 ***             http://physics.nist.gov/constants

 Speed of light in vacuum [m/s]                             2.99792458000000E+08
 Magnetic constant or permeability of vacuum [N/A**2]       1.25663706143592E-06
 Electric constant or permittivity of vacuum [F/m]          8.85418781762039E-12
 Planck constant (h) [J*s]                                  6.62606896000000E-34
 Planck constant (h-bar) [J*s]                              1.05457162825177E-34
 Elementary charge [C]                                      1.60217648700000E-19
 Electron mass [kg]                                         9.10938215000000E-31
 Electron g factor [ ]                                     -2.00231930436220E+00
 Proton mass [kg]                                           1.67262163700000E-27
 Fine-structure constant                                    7.29735253760000E-03
 Rydberg constant [1/m]                                     1.09737315685270E+07
 Avogadro constant [1/mol]                                  6.02214179000000E+23
 Boltzmann constant [J/K]                                   1.38065040000000E-23
 Atomic mass unit [kg]                                      1.66053878200000E-27
 Bohr radius [m]                                            5.29177208590000E-11

 *** Conversion factors ***

 [u] -> [a.u.]                                              1.82288848426455E+03
 [Angstrom] -> [Bohr] = [a.u.]                              1.88972613288564E+00
 [a.u.] = [Bohr] -> [Angstrom]                              5.29177208590000E-01
 [a.u.] -> [s]                                              2.41888432650478E-17
 [a.u.] -> [fs]                                             2.41888432650478E-02
 [a.u.] -> [J]                                              4.35974393937059E-18
 [a.u.] -> [N]                                              8.23872205491840E-08
 [a.u.] -> [K]                                              3.15774647902944E+05
 [a.u.] -> [kJ/mol]                                         2.62549961709828E+03
 [a.u.] -> [kcal/mol]                                       6.27509468713739E+02
 [a.u.] -> [Pa]                                             2.94210107994716E+13
 [a.u.] -> [bar]                                            2.94210107994716E+08
 [a.u.] -> [atm]                                            2.90362800883016E+08
 [a.u.] -> [eV]                                             2.72113838565563E+01
 [a.u.] -> [Hz]                                             6.57968392072181E+15
 [a.u.] -> [1/cm] (wave numbers)                            2.19474631370540E+05
 [a.u./Bohr**2] -> [1/cm]                                   5.14048714338585E+03
 

 CELL_TOP| Volume [angstrom^3]:                                     27000.000000
 CELL_TOP| Vector a [angstrom    30.000     0.000     0.000   |a| =    30.000000
 CELL_TOP| Vector b [angstrom     0.000    30.000     0.000   |b| =    30.000000
 CELL_TOP| Vector c [angstrom     0.000     0.000    30.000   |c| =    30.000000
 CELL_TOP| Angle (b,c), alpha [degree]:                                90.000000
 CELL_TOP| Angle (a,c), beta  [degree]:                                90.000000
 CELL_TOP| Angle (a,b), gamma [degree]:                                90.000000
 CELL_TOP| Numerically orthorhombic:                                         YES
 CELL_TOP| Periodicity                                                      NONE

 GENERATE|  Preliminary Number of Bonds generated:                             0
 GENERATE|  Achieved consistency in connectivity generation.

 CELL| Volume [angstrom^3]:                                         27000.000000
 CELL| Vector a [angstrom]:      30.000     0.000     0.000   |a| =    30.000000
 CELL| Vector b [angstrom]:       0.000    30.000     0.000   |b| =    30.000000
 CELL| Vector c [angstrom]:       0.000     0.000    30.000   |c| =    30.000000
 CELL| Angle (b,c), alpha [degree]:                                    90.000000
 CELL| Angle (a,c), beta  [degree]:                                    90.000000
 CELL| Angle (a,b), gamma [degree]:                                    90.000000
 CELL| Numerically orthorhombic:                                             YES
 CELL| Periodicity                                                          NONE

 CELL_REF| Volume [angstrom^3]:                                     27000.000000
 CELL_REF| Vector a [angstrom    30.000     0.000     0.000   |a| =    30.000000
 CELL_REF| Vector b [angstrom     0.000    30.000     0.000   |b| =    30.000000
 CELL_REF| Vector c [angstrom     0.000     0.000    30.000   |c| =    30.000000
 CELL_REF| Angle (b,c), alpha [degree]:                                90.000000
 CELL_REF| Angle (a,c), beta  [degree]:                                90.000000
 CELL_REF| Angle (a,b), gamma [degree]:                                90.000000
 CELL_REF| Numerically orthorhombic:                                         YES
 CELL_REF| Periodicity                                                      NONE

 *******************************************************************************
 *******************************************************************************
 **                                                                           **
 **     #####                         ##              ##                      **
 **    ##   ##            ##          ##              ##                      **
 **   ##     ##                       ##            ######                    **
 **   ##     ##  ##   ##  ##   #####  ##  ##   ####   ##    #####    #####    **
 **   ##     ##  ##   ##  ##  ##      ## ##   ##      ##   ##   ##  ##   ##   **
 **   ##  ## ##  ##   ##  ##  ##      ####     ###    ##   ######   ######    **
 **    ##  ###   ##   ##  ##  ##      ## ##      ##   ##   ##       ##        **
 **     #######   #####   ##   #####  ##  ##  ####    ##    #####   ##        **
 **           ##                                                    ##        **
 **                                                                           **
 **                                                ... make the atoms dance   **
 **                                                                           **
 **            Copyright (C) by CP2K developers group (2000-2025)             **
 **                      J. Chem. Phys. 152, 194103 (2020)                    **
 **                                                                           **
 *******************************************************************************

 DFT| Spin restricted Kohn-Sham (RKS) calculation                            RKS
 DFT| Multiplicity                                                             1
 DFT| Number of spin states                                                    1
 DFT| Charge                                                                   0
 DFT| Self-interaction correction (SIC)                                       NO
 DFT| Cutoffs: density                                              1.000000E-10
 DFT|          gradient                                             1.000000E-10
 DFT|          tau                                                  1.000000E-10
 DFT|          cutoff_smoothing_range                               0.000000E+00
 DFT| XC density smoothing                                                  NONE
 DFT| XC derivatives                                                          PW

 FUNCTIONAL| PBE:
 FUNCTIONAL| J.P.Perdew, K.Burke, M.Ernzerhof, Phys. Rev. Letter, vol. 77, n 18,
 FUNCTIONAL|  pp. 3865-3868, (1996)sx=0.750sc=1.000{spin unpolarized}           


 QS| Method:                                                                GAPW
 QS| Density plane wave grid type                        NON-SPHERICAL FULLSPACE
 QS| Number of grid levels:                                                    4
 QS| Density cutoff [a.u.]:                                                250.0
 QS| Multi grid cutoff [a.u.]: 1) grid level                               250.0
 QS|                           2) grid level                                83.3
 QS|                           3) grid level                                27.8
 QS|                           4) grid level                                 9.3
 QS| Grid level progression factor:                                          3.0
 QS| Relative density cutoff [a.u.]:                                        50.0
 QS| Interaction thresholds: eps_pgf_orb:                                1.0E-12
 QS|                         eps_filter_matrix:                          0.0E+00
 QS|                         eps_core_charge:                            1.0E-14
 QS|                         eps_rho_gspace:                             1.0E-12
 QS|                         eps_rho_rspace:                             1.0E-12
 QS|                         eps_gvg_rspace:                             1.0E-06
 QS|                         eps_ppl:                                    1.0E-02
 QS|                         eps_ppnl:                                   1.0E-08
 QS| GAPW|      One center basis from orbital basis primitives
 QS| GAPW|                   eps_fit:                                    1.0E-04
 QS| GAPW|                   eps_iso:                                    1.0E-12
 QS| GAPW|                   eps_svd:                                    1.0E-08
 QS| GAPW|                   eps_cpc:                                    1.0E-12
 QS| GAPW|   atom-r-grid: quadrature:                                     GC_LOG
 QS| GAPW|      atom-s-grid:  max l :                                          8
 QS| GAPW|      max_l_rho0 :                                                   2


 ATOMIC KIND INFORMATION

  1. Atomic kind: C                                     Number of atoms:       4

     Orbital Basis Set                                        aug-TZVP-MOLOPT-ae

       Number of orbital shell sets:                                           2
       Number of orbital shells:                                              16
       Number of primitive Cartesian functions:                               13
       Number of Cartesian basis functions:                                   71
       Number of spherical basis functions:                                   56
       Norm type:                                                              2

       Normalised Cartesian orbitals:

                        Set   Shell   Orbital            Exponent    Coefficient

                          1       1    1s                0.040000       0.000000
                                                         0.097098       0.019281
                                                         0.283960       0.027513
                                                         0.806764       0.003692
                                                         2.441624       0.446183
                                                         6.739673       1.752510
                                                        34.417212       0.637474

                          1       2    2s                0.040000       0.000000
                                                         0.097098       0.029117
                                                         0.283960       0.094997
                                                         0.806764       0.362633
                                                         2.441624      -0.104551
                                                         6.739673      -0.288836
                                                        34.417212       1.102934

                          1       3    3s                0.040000       0.000000
                                                         0.097098       0.047046
                                                         0.283960       0.169545
                                                         0.806764      -0.252838
                                                         2.441624      -0.199197
                                                         6.739673      -0.168746
                                                        34.417212      -6.120053

                          1       4    4s                0.040000       0.000000
                                                         0.097098       0.188374
                                                         0.283960      -0.341415
                                                         0.806764       0.091223
                                                         2.441624      -0.053941
                                                         6.739673      -0.401007
                                                        34.417212      -3.786931

                          1       5    5s                0.040000       0.099533
                                                         0.097098      -0.167672
                                                         0.283960      -0.126383
                                                         0.806764       0.030074
                                                         2.441624       0.000000
                                                         6.739673       0.000000
                                                        34.417212       0.000000

                          1       6    2px               0.040000       0.000000
                                                         0.097098       0.005087
                                                         0.283960       0.032186
                                                         0.806764       0.779023
                                                         2.441624       0.695625
                                                         6.739673       2.243109
                                                        34.417212       2.016536
                          1       6    2py               0.040000       0.000000
                                                         0.097098       0.005087
                                                         0.283960       0.032186
                                                         0.806764       0.779023
                                                         2.441624       0.695625
                                                         6.739673       2.243109
                                                        34.417212       2.016536
                          1       6    2pz               0.040000       0.000000
                                                         0.097098       0.005087
                                                         0.283960       0.032186
                                                         0.806764       0.779023
                                                         2.441624       0.695625
                                                         6.739673       2.243109
                                                        34.417212       2.016536

                          1       7    3px               0.040000       0.000000
                                                         0.097098       0.008084
                                                         0.283960       0.294367
                                                         0.806764      -0.188640
                                                         2.441624       0.912249
                                                         6.739673      -2.720242
                                                        34.417212       1.690366
                          1       7    3py               0.040000       0.000000
                                                         0.097098       0.008084
                                                         0.283960       0.294367
                                                         0.806764      -0.188640
                                                         2.441624       0.912249
                                                         6.739673      -2.720242
                                                        34.417212       1.690366
                          1       7    3pz               0.040000       0.000000
                                                         0.097098       0.008084
                                                         0.283960       0.294367
                                                         0.806764      -0.188640
                                                         2.441624       0.912249
                                                         6.739673      -2.720242
                                                        34.417212       1.690366

                          1       8    4px               0.040000       0.000000
                                                         0.097098       0.081068
                                                         0.283960      -0.017243
                                                         0.806764      -0.070055
                                                         2.441624      -0.855991
                                                         6.739673       1.761645
                                                        34.417212     -12.705833
                          1       8    4py               0.040000       0.000000
                                                         0.097098       0.081068
                                                         0.283960      -0.017243
                                                         0.806764      -0.070055
                                                         2.441624      -0.855991
                                                         6.739673       1.761645
                                                        34.417212     -12.705833
                          1       8    4pz               0.040000       0.000000
                                                         0.097098       0.081068
                                                         0.283960      -0.017243
                                                         0.806764      -0.070055
                                                         2.441624      -0.855991
                                                         6.739673       1.761645
                                                        34.417212     -12.705833

                          1       9    5px               0.040000       0.032085
                                                         0.097098      -0.027366
                                                         0.283960      -0.100343
                                                         0.806764      -0.020266
                                                         2.441624       0.000000
                                                         6.739673       0.000000
                                                        34.417212       0.000000
                          1       9    5py               0.040000       0.032085
                                                         0.097098      -0.027366
                                                         0.283960      -0.100343
                                                         0.806764      -0.020266
                                                         2.441624       0.000000
                                                         6.739673       0.000000
                                                        34.417212       0.000000
                          1       9    5pz               0.040000       0.032085
                                                         0.097098      -0.027366
                                                         0.283960      -0.100343
                                                         0.806764      -0.020266
                                                         2.441624       0.000000
                                                         6.739673       0.000000
                                                        34.417212       0.000000

                          1      10    3dx2              0.040000       0.000000
                                                         0.097098       0.001415
                                                         0.283960       0.015501
                                                         0.806764       0.546922
                                                         2.441624       3.763414
                                                         6.739673       4.248634
                                                        34.417212     174.894573
                          1      10    3dxy              0.040000       0.000000
                                                         0.097098       0.002451
                                                         0.283960       0.026849
                                                         0.806764       0.947296
                                                         2.441624       6.518424
                                                         6.739673       7.358850
                                                        34.417212     302.926287
                          1      10    3dxz              0.040000       0.000000
                                                         0.097098       0.002451
                                                         0.283960       0.026849
                                                         0.806764       0.947296
                                                         2.441624       6.518424
                                                         6.739673       7.358850
                                                        34.417212     302.926287
                          1      10    3dy2              0.040000       0.000000
                                                         0.097098       0.001415
                                                         0.283960       0.015501
                                                         0.806764       0.546922
                                                         2.441624       3.763414
                                                         6.739673       4.248634
                                                        34.417212     174.894573
                          1      10    3dyz              0.040000       0.000000
                                                         0.097098       0.002451
                                                         0.283960       0.026849
                                                         0.806764       0.947296
                                                         2.441624       6.518424
                                                         6.739673       7.358850
                                                        34.417212     302.926287
                          1      10    3dz2              0.040000       0.000000
                                                         0.097098       0.001415
                                                         0.283960       0.015501
                                                         0.806764       0.546922
                                                         2.441624       3.763414
                                                         6.739673       4.248634
                                                        34.417212     174.894573

                          1      11    4dx2              0.040000       0.000000
                                                         0.097098       0.001225
                                                         0.283960       0.139703
                                                         0.806764       0.323683
                                                         2.441624      -2.510108
                                                         6.739673      -4.401044
                                                        34.417212    -164.169372
                          1      11    4dxy              0.040000       0.000000
                                                         0.097098       0.002122
                                                         0.283960       0.241972
                                                         0.806764       0.560636
                                                         2.441624      -4.347634
                                                         6.739673      -7.622831
                                                        34.417212    -284.349694
                          1      11    4dxz              0.040000       0.000000
                                                         0.097098       0.002122
                                                         0.283960       0.241972
                                                         0.806764       0.560636
                                                         2.441624      -4.347634
                                                         6.739673      -7.622831
                                                        34.417212    -284.349694
                          1      11    4dy2              0.040000       0.000000
                                                         0.097098       0.001225
                                                         0.283960       0.139703
                                                         0.806764       0.323683
                                                         2.441624      -2.510108
                                                         6.739673      -4.401044
                                                        34.417212    -164.169372
                          1      11    4dyz              0.040000       0.000000
                                                         0.097098       0.002122
                                                         0.283960       0.241972
                                                         0.806764       0.560636
                                                         2.441624      -4.347634
                                                         6.739673      -7.622831
                                                        34.417212    -284.349694
                          1      11    4dz2              0.040000       0.000000
                                                         0.097098       0.001225
                                                         0.283960       0.139703
                                                         0.806764       0.323683
                                                         2.441624      -2.510108
                                                         6.739673      -4.401044
                                                        34.417212    -164.169372

                          1      12    5dx2              0.040000       0.006049
                                                         0.097098      -0.003128
                                                         0.283960       0.033814
                                                         0.806764       0.003338
                                                         2.441624       0.000000
                                                         6.739673       0.000000
                                                        34.417212       0.000000
                          1      12    5dxy              0.040000       0.010477
                                                         0.097098      -0.005418
                                                         0.283960       0.058567
                                                         0.806764       0.005781
                                                         2.441624       0.000000
                                                         6.739673       0.000000
                                                        34.417212       0.000000
                          1      12    5dxz              0.040000       0.010477
                                                         0.097098      -0.005418
                                                         0.283960       0.058567
                                                         0.806764       0.005781
                                                         2.441624       0.000000
                                                         6.739673       0.000000
                                                        34.417212       0.000000
                          1      12    5dy2              0.040000       0.006049
                                                         0.097098      -0.003128
                                                         0.283960       0.033814
                                                         0.806764       0.003338
                                                         2.441624       0.000000
                                                         6.739673       0.000000
                                                        34.417212       0.000000
                          1      12    5dyz              0.040000       0.010477
                                                         0.097098      -0.005418
                                                         0.283960       0.058567
                                                         0.806764       0.005781
                                                         2.441624       0.000000
                                                         6.739673       0.000000
                                                        34.417212       0.000000
                          1      12    5dz2              0.040000       0.006049
                                                         0.097098      -0.003128
                                                         0.283960       0.033814
                                                         0.806764       0.003338
                                                         2.441624       0.000000
                                                         6.739673       0.000000
                                                        34.417212       0.000000

                          1      13    4fx3              0.040000       0.000000
                                                         0.097098      -0.000799
                                                         0.283960       0.042127
                                                         0.806764       0.576468
                                                         2.441624       1.033755
                                                         6.739673      -2.026957
                                                        34.417212      49.427593
                          1      13    4fx2y             0.040000       0.000000
                                                         0.097098      -0.001786
                                                         0.283960       0.094199
                                                         0.806764       1.289022
                                                         2.441624       2.311546
                                                         6.739673      -4.532415
                                                        34.417212     110.523457
                          1      13    4fx2z             0.040000       0.000000
                                                         0.097098      -0.001786
                                                         0.283960       0.094199
                                                         0.806764       1.289022
                                                         2.441624       2.311546
                                                         6.739673      -4.532415
                                                        34.417212     110.523457
                          1      13    4fxy2             0.040000       0.000000
                                                         0.097098      -0.001786
                                                         0.283960       0.094199
                                                         0.806764       1.289022
                                                         2.441624       2.311546
                                                         6.739673      -4.532415
                                                        34.417212     110.523457
                          1      13    4fxyz             0.040000       0.000000
                                                         0.097098      -0.003093
                                                         0.283960       0.163158
                                                         0.806764       2.232651
                                                         2.441624       4.003716
                                                         6.739673      -7.850372
                                                        34.417212     191.432243
                          1      13    4fxz2             0.040000       0.000000
                                                         0.097098      -0.001786
                                                         0.283960       0.094199
                                                         0.806764       1.289022
                                                         2.441624       2.311546
                                                         6.739673      -4.532415
                                                        34.417212     110.523457
                          1      13    4fy3              0.040000       0.000000
                                                         0.097098      -0.000799
                                                         0.283960       0.042127
                                                         0.806764       0.576468
                                                         2.441624       1.033755
                                                         6.739673      -2.026957
                                                        34.417212      49.427593
                          1      13    4fy2z             0.040000       0.000000
                                                         0.097098      -0.001786
                                                         0.283960       0.094199
                                                         0.806764       1.289022
                                                         2.441624       2.311546
                                                         6.739673      -4.532415
                                                        34.417212     110.523457
                          1      13    4fyz2             0.040000       0.000000
                                                         0.097098      -0.001786
                                                         0.283960       0.094199
                                                         0.806764       1.289022
                                                         2.441624       2.311546
                                                         6.739673      -4.532415
                                                        34.417212     110.523457
                          1      13    4fz3              0.040000       0.000000
                                                         0.097098      -0.000799
                                                         0.283960       0.042127
                                                         0.806764       0.576468
                                                         2.441624       1.033755
                                                         6.739673      -2.026957
                                                        34.417212      49.427593

                          1      14    5fx3              0.040000       0.000092
                                                         0.097098       0.001511
                                                         0.283960      -0.094589
                                                         0.806764       0.000869
                                                         2.441624       0.000000
                                                         6.739673       0.000000
                                                        34.417212       0.000000
                          1      14    5fx2y             0.040000       0.000206
                                                         0.097098       0.003380
                                                         0.283960      -0.211507
                                                         0.806764       0.001943
                                                         2.441624       0.000000
                                                         6.739673       0.000000
                                                        34.417212       0.000000
                          1      14    5fx2z             0.040000       0.000206
                                                         0.097098       0.003380
                                                         0.283960      -0.211507
                                                         0.806764       0.001943
                                                         2.441624       0.000000
                                                         6.739673       0.000000
                                                        34.417212       0.000000
                          1      14    5fxy2             0.040000       0.000206
                                                         0.097098       0.003380
                                                         0.283960      -0.211507
                                                         0.806764       0.001943
                                                         2.441624       0.000000
                                                         6.739673       0.000000
                                                        34.417212       0.000000
                          1      14    5fxyz             0.040000       0.000357
                                                         0.097098       0.005854
                                                         0.283960      -0.366341
                                                         0.806764       0.003365
                                                         2.441624       0.000000
                                                         6.739673       0.000000
                                                        34.417212       0.000000
                          1      14    5fxz2             0.040000       0.000206
                                                         0.097098       0.003380
                                                         0.283960      -0.211507
                                                         0.806764       0.001943
                                                         2.441624       0.000000
                                                         6.739673       0.000000
                                                        34.417212       0.000000
                          1      14    5fy3              0.040000       0.000092
                                                         0.097098       0.001511
                                                         0.283960      -0.094589
                                                         0.806764       0.000869
                                                         2.441624       0.000000
                                                         6.739673       0.000000
                                                        34.417212       0.000000
                          1      14    5fy2z             0.040000       0.000206
                                                         0.097098       0.003380
                                                         0.283960      -0.211507
                                                         0.806764       0.001943
                                                         2.441624       0.000000
                                                         6.739673       0.000000
                                                        34.417212       0.000000
                          1      14    5fyz2             0.040000       0.000206
                                                         0.097098       0.003380
                                                         0.283960      -0.211507
                                                         0.806764       0.001943
                                                         2.441624       0.000000
                                                         6.739673       0.000000
                                                        34.417212       0.000000
                          1      14    5fz3              0.040000       0.000092
                                                         0.097098       0.001511
                                                         0.283960      -0.094589
                                                         0.806764       0.000869
                                                         2.441624       0.000000
                                                         6.739673       0.000000
                                                        34.417212       0.000000

                          1      15    5gx4              0.040000       0.000014
                                                         0.097098       0.001608
                                                         0.283960       0.004604
                                                         0.806764      -0.003474
                                                         2.441624       0.000000
                                                         6.739673       0.000000
                                                        34.417212       0.000000
                          1      15    5gx3y             0.040000       0.000036
                                                         0.097098       0.004255
                                                         0.283960       0.012180
                                                         0.806764      -0.009191
                                                         2.441624       0.000000
                                                         6.739673       0.000000
                                                        34.417212       0.000000
                          1      15    5gx3z             0.040000       0.000036
                                                         0.097098       0.004255
                                                         0.283960       0.012180
                                                         0.806764      -0.009191
                                                         2.441624       0.000000
                                                         6.739673       0.000000
                                                        34.417212       0.000000
                          1      15    5gx2y2            0.040000       0.000046
                                                         0.097098       0.005493
                                                         0.283960       0.015725
                                                         0.806764      -0.011865
                                                         2.441624       0.000000
                                                         6.739673       0.000000
                                                        34.417212       0.000000
                          1      15    5gx2yz            0.040000       0.000080
                                                         0.097098       0.009514
                                                         0.283960       0.027236
                                                         0.806764      -0.020551
                                                         2.441624       0.000000
                                                         6.739673       0.000000
                                                        34.417212       0.000000
                          1      15    5gx2z2            0.040000       0.000046
                                                         0.097098       0.005493
                                                         0.283960       0.015725
                                                         0.806764      -0.011865
                                                         2.441624       0.000000
                                                         6.739673       0.000000
                                                        34.417212       0.000000
                          1      15    5gxy3             0.040000       0.000036
                                                         0.097098       0.004255
                                                         0.283960       0.012180
                                                         0.806764      -0.009191
                                                         2.441624       0.000000
                                                         6.739673       0.000000
                                                        34.417212       0.000000
                          1      15    5gxy2z            0.040000       0.000080
                                                         0.097098       0.009514
                                                         0.283960       0.027236
                                                         0.806764      -0.020551
                                                         2.441624       0.000000
                                                         6.739673       0.000000
                                                        34.417212       0.000000
                          1      15    5gxyz2            0.040000       0.000080
                                                         0.097098       0.009514
                                                         0.283960       0.027236
                                                         0.806764      -0.020551
                                                         2.441624       0.000000
                                                         6.739673       0.000000
                                                        34.417212       0.000000
                          1      15    5gxz3             0.040000       0.000036
                                                         0.097098       0.004255
                                                         0.283960       0.012180
                                                         0.806764      -0.009191
                                                         2.441624       0.000000
                                                         6.739673       0.000000
                                                        34.417212       0.000000
                          1      15    5gy4              0.040000       0.000014
                                                         0.097098       0.001608
                                                         0.283960       0.004604
                                                         0.806764      -0.003474
                                                         2.441624       0.000000
                                                         6.739673       0.000000
                                                        34.417212       0.000000
                          1      15    5gy3z             0.040000       0.000036
                                                         0.097098       0.004255
                                                         0.283960       0.012180
                                                         0.806764      -0.009191
                                                         2.441624       0.000000
                                                         6.739673       0.000000
                                                        34.417212       0.000000
                          1      15    5gy2z2            0.040000       0.000046
                                                         0.097098       0.005493
                                                         0.283960       0.015725
                                                         0.806764      -0.011865
                                                         2.441624       0.000000
                                                         6.739673       0.000000
                                                        34.417212       0.000000
                          1      15    5gyz3             0.040000       0.000036
                                                         0.097098       0.004255
                                                         0.283960       0.012180
                                                         0.806764      -0.009191
                                                         2.441624       0.000000
                                                         6.739673       0.000000
                                                        34.417212       0.000000
                          1      15    5gz4              0.040000       0.000014
                                                         0.097098       0.001608
                                                         0.283960       0.004604
                                                         0.806764      -0.003474
                                                         2.441624       0.000000
                                                         6.739673       0.000000
                                                        34.417212       0.000000

                          2       1    1s            13575.369584       0.323227
                                                      2035.237517       2.062509
                                                       463.111112       2.210797
                                                       131.318553       4.954487
                                                        42.899593       1.730189
                                                        15.855102       4.257999

     RI Auxiliary Basis Set             RI_aug-TZVP-MOLOPT-ae_N_RI_094_s_p_d_f_g

       Number of orbital shell sets:                                          24
       Number of orbital shells:                                              24
       Number of primitive Cartesian functions:                               24
       Number of Cartesian basis functions:                                  121
       Number of spherical basis functions:                                   94
       Norm type:                                                              2

       Normalised Cartesian orbitals:

                        Set   Shell   Orbital            Exponent    Coefficient

                          1       1    1s                0.182375       0.198900

                          2       1   14dx2              0.216126       0.112758
                          2       1   14dxy              0.216126       0.195303
                          2       1   14dxz              0.216126       0.195303
                          2       1   14dy2              0.216126       0.112758
                          2       1   14dyz              0.216126       0.195303
                          2       1   14dz2              0.216126       0.112758

                          3       1    2s                0.278625       0.273322

                          4       1    8px               0.350543       0.384474
                          4       1    8py               0.350543       0.384474
                          4       1    8pz               0.350543       0.384474

                          5       1   15dx2              0.387364       0.313053
                          5       1   15dxy              0.387364       0.542224
                          5       1   15dxz              0.387364       0.542224
                          5       1   15dy2              0.387364       0.313053
                          5       1   15dyz              0.387364       0.542224
                          5       1   15dz2              0.387364       0.313053

                          6       1    9px               0.492520       0.588125
                          6       1    9py               0.492520       0.588125
                          6       1    9pz               0.492520       0.588125

                          7       1   20fx3              0.530875       0.354149
                          7       1   20fx2y             0.530875       0.791902
                          7       1   20fx2z             0.530875       0.791902
                          7       1   20fxy2             0.530875       0.791902
                          7       1   20fxyz             0.530875       1.371615
                          7       1   20fxz2             0.530875       0.791902
                          7       1   20fy3              0.530875       0.354149
                          7       1   20fy2z             0.530875       0.791902
                          7       1   20fyz2             0.530875       0.791902
                          7       1   20fz3              0.530875       0.354149

                          8       1   23gx4              0.547365       0.212176
                          8       1   23gx3y             0.547365       0.561366
                          8       1   23gx3z             0.547365       0.561366
                          8       1   23gx2y2            0.547365       0.724720
                          8       1   23gx2yz            0.547365       1.255253
                          8       1   23gx2z2            0.547365       0.724720
                          8       1   23gxy3             0.547365       0.561366
                          8       1   23gxy2z            0.547365       1.255253
                          8       1   23gxyz2            0.547365       1.255253
                          8       1   23gxz3             0.547365       0.561366
                          8       1   23gy4              0.547365       0.212176
                          8       1   23gy3z             0.547365       0.561366
                          8       1   23gy2z2            0.547365       0.724720
                          8       1   23gyz3             0.547365       0.561366
                          8       1   23gz4              0.547365       0.212176

                          9       1   16dx2              0.715114       0.915306
                          9       1   16dxy              0.715114       1.585357
                          9       1   16dxz              0.715114       1.585357
                          9       1   16dy2              0.715114       0.915306
                          9       1   16dyz              0.715114       1.585357
                          9       1   16dz2              0.715114       0.915306

                         10       1    3s                0.753344       0.576309

                         11       1   10px               1.063482       1.539405
                         11       1   10py               1.063482       1.539405
                         11       1   10pz               1.063482       1.539405

                         12       1   17dx2              1.313463       2.652409
                         12       1   17dxy              1.313463       4.594108
                         12       1   17dxz              1.313463       4.594108
                         12       1   17dy2              1.313463       2.652409
                         12       1   17dyz              1.313463       4.594108
                         12       1   17dz2              1.313463       2.652409

                         13       1   21fx3              1.320842       2.753398
                         13       1   21fx2y             1.320842       6.156786
                         13       1   21fx2z             1.320842       6.156786
                         13       1   21fxy2             1.320842       6.156786
                         13       1   21fxyz             1.320842      10.663866
                         13       1   21fxz2             1.320842       6.156786
                         13       1   21fy3              1.320842       2.753398
                         13       1   21fy2z             1.320842       6.156786
                         13       1   21fyz2             1.320842       6.156786
                         13       1   21fz3              1.320842       2.753398

                         14       1   24gx4              1.548328       3.703041
                         14       1   24gx3y             1.548328       9.797325
                         14       1   24gx3z             1.548328       9.797325
                         14       1   24gx2y2            1.548328      12.648292
                         14       1   24gx2yz            1.548328      21.907485
                         14       1   24gx2z2            1.548328      12.648292
                         14       1   24gxy3             1.548328       9.797325
                         14       1   24gxy2z            1.548328      21.907485
                         14       1   24gxyz2            1.548328      21.907485
                         14       1   24gxz3             1.548328       9.797325
                         14       1   24gy4              1.548328       3.703041
                         14       1   24gy3z             1.548328       9.797325
                         14       1   24gy2z2            1.548328      12.648292
                         14       1   24gyz3             1.548328       9.797325
                         14       1   24gz4              1.548328       3.703041

                         15       1    4s                2.247219       1.308110

                         16       1   18dx2              2.417521       7.714496
                         16       1   18dxy              2.417521      13.361899
                         16       1   18dxz              2.417521      13.361899
                         16       1   18dy2              2.417521       7.714496
                         16       1   18dyz              2.417521      13.361899
                         16       1   18dz2              2.417521       7.714496

                         17       1   11px               2.682426       4.893278
                         17       1   11py               2.682426       4.893278
                         17       1   11pz               2.682426       4.893278

                         18       1   22fx3              3.882270      31.145644
                         18       1   22fx2y             3.882270      69.643778
                         18       1   22fx2z             3.882270      69.643778
                         18       1   22fxy2             3.882270      69.643778
                         18       1   22fxyz             3.882270     120.626562
                         18       1   22fxz2             3.882270      69.643778
                         18       1   22fy3              3.882270      31.145644
                         18       1   22fy2z             3.882270      69.643778
                         18       1   22fyz2             3.882270      69.643778
                         18       1   22fz3              3.882270      31.145644

                         19       1   19dx2              4.573046      23.537977
                         19       1   19dxy              4.573046      40.768972
                         19       1   19dxz              4.573046      40.768972
                         19       1   19dy2              4.573046      23.537977
                         19       1   19dyz              4.573046      40.768972
                         19       1   19dz2              4.573046      23.537977

                         20       1   12px               6.990933      16.203506
                         20       1   12py               6.990933      16.203506
                         20       1   12pz               6.990933      16.203506

                         21       1    5s                7.163766       3.120801

                         22       1   13px              16.966694      49.083625
                         22       1   13py              16.966694      49.083625
                         22       1   13pz              16.966694      49.083625

                         23       1    6s               24.806664       7.922028

                         24       1    7s               79.332059      18.945088

       Atomic covalent radius [Angstrom]:                                  0.770

       Atomic van der Waals radius [Angstrom]:                             1.700

     The atoms of this atomic kind are PAW atoms (GAPW):
       Hard Gaussian function radius:                                      1.512
       Rho0 radius:                                                        1.512
       Maximum GTO radius used for PAW projector construction:            24.566

     GAPW Soft Basis Set                                 aug-TZVP-MOLOPT-ae_soft

       Number of orbital shell sets:                                           2
       Number of orbital shells:                                              16
       Number of primitive Cartesian functions:                                5
       Number of Cartesian basis functions:                                   71
       Number of spherical basis functions:                                   56
       Norm type:                                                              2

       Normalised Cartesian orbitals:

                        Set   Shell   Orbital            Exponent    Coefficient

                          1       1    1s                0.040000       0.000000
                                                         0.097098       0.019281
                                                         0.283960       0.027513
                                                         0.806764       0.003692
                                                         2.441624       0.446183

                          1       2    2s                0.040000       0.000000
                                                         0.097098       0.029117
                                                         0.283960       0.094997
                                                         0.806764       0.362633
                                                         2.441624      -0.104551

                          1       3    3s                0.040000       0.000000
                                                         0.097098       0.047046
                                                         0.283960       0.169545
                                                         0.806764      -0.252838
                                                         2.441624      -0.199197

                          1       4    4s                0.040000       0.000000
                                                         0.097098       0.188374
                                                         0.283960      -0.341415
                                                         0.806764       0.091223
                                                         2.441624      -0.053941

                          1       5    5s                0.040000       0.099533
                                                         0.097098      -0.167672
                                                         0.283960      -0.126383
                                                         0.806764       0.030074
                                                         2.441624       0.000000

                          1       6    2px               0.040000       0.000000
                                                         0.097098       0.005087
                                                         0.283960       0.032186
                                                         0.806764       0.779023
                                                         2.441624       0.695625
                          1       6    2py               0.040000       0.000000
                                                         0.097098       0.005087
                                                         0.283960       0.032186
                                                         0.806764       0.779023
                                                         2.441624       0.695625
                          1       6    2pz               0.040000       0.000000
                                                         0.097098       0.005087
                                                         0.283960       0.032186
                                                         0.806764       0.779023
                                                         2.441624       0.695625

                          1       7    3px               0.040000       0.000000
                                                         0.097098       0.008084
                                                         0.283960       0.294367
                                                         0.806764      -0.188640
                                                         2.441624       0.912249
                          1       7    3py               0.040000       0.000000
                                                         0.097098       0.008084
                                                         0.283960       0.294367
                                                         0.806764      -0.188640
                                                         2.441624       0.912249
                          1       7    3pz               0.040000       0.000000
                                                         0.097098       0.008084
                                                         0.283960       0.294367
                                                         0.806764      -0.188640
                                                         2.441624       0.912249

                          1       8    4px               0.040000       0.000000
                                                         0.097098       0.081068
                                                         0.283960      -0.017243
                                                         0.806764      -0.070055
                                                         2.441624      -0.855991
                          1       8    4py               0.040000       0.000000
                                                         0.097098       0.081068
                                                         0.283960      -0.017243
                                                         0.806764      -0.070055
                                                         2.441624      -0.855991
                          1       8    4pz               0.040000       0.000000
                                                         0.097098       0.081068
                                                         0.283960      -0.017243
                                                         0.806764      -0.070055
                                                         2.441624      -0.855991

                          1       9    5px               0.040000       0.032085
                                                         0.097098      -0.027366
                                                         0.283960      -0.100343
                                                         0.806764      -0.020266
                                                         2.441624       0.000000
                          1       9    5py               0.040000       0.032085
                                                         0.097098      -0.027366
                                                         0.283960      -0.100343
                                                         0.806764      -0.020266
                                                         2.441624       0.000000
                          1       9    5pz               0.040000       0.032085
                                                         0.097098      -0.027366
                                                         0.283960      -0.100343
                                                         0.806764      -0.020266
                                                         2.441624       0.000000

                          1      10    3dx2              0.040000       0.000000
                                                         0.097098       0.001415
                                                         0.283960       0.015501
                                                         0.806764       0.546922
                                                         2.441624       3.763414
                          1      10    3dxy              0.040000       0.000000
                                                         0.097098       0.002451
                                                         0.283960       0.026849
                                                         0.806764       0.947296
                                                         2.441624       6.518424
                          1      10    3dxz              0.040000       0.000000
                                                         0.097098       0.002451
                                                         0.283960       0.026849
                                                         0.806764       0.947296
                                                         2.441624       6.518424
                          1      10    3dy2              0.040000       0.000000
                                                         0.097098       0.001415
                                                         0.283960       0.015501
                                                         0.806764       0.546922
                                                         2.441624       3.763414
                          1      10    3dyz              0.040000       0.000000
                                                         0.097098       0.002451
                                                         0.283960       0.026849
                                                         0.806764       0.947296
                                                         2.441624       6.518424
                          1      10    3dz2              0.040000       0.000000
                                                         0.097098       0.001415
                                                         0.283960       0.015501
                                                         0.806764       0.546922
                                                         2.441624       3.763414

                          1      11    4dx2              0.040000       0.000000
                                                         0.097098       0.001225
                                                         0.283960       0.139703
                                                         0.806764       0.323683
                                                         2.441624      -2.510108
                          1      11    4dxy              0.040000       0.000000
                                                         0.097098       0.002122
                                                         0.283960       0.241972
                                                         0.806764       0.560636
                                                         2.441624      -4.347634
                          1      11    4dxz              0.040000       0.000000
                                                         0.097098       0.002122
                                                         0.283960       0.241972
                                                         0.806764       0.560636
                                                         2.441624      -4.347634
                          1      11    4dy2              0.040000       0.000000
                                                         0.097098       0.001225
                                                         0.283960       0.139703
                                                         0.806764       0.323683
                                                         2.441624      -2.510108
                          1      11    4dyz              0.040000       0.000000
                                                         0.097098       0.002122
                                                         0.283960       0.241972
                                                         0.806764       0.560636
                                                         2.441624      -4.347634
                          1      11    4dz2              0.040000       0.000000
                                                         0.097098       0.001225
                                                         0.283960       0.139703
[...]
 Jakobovits, A. Lazzaro, H. Pabst, T. Mueller, R. Schade, M. Guidon, S. 
 Andermatt, N. Holmberg, G. K. Schenter, A. Hehn, A. Bussy, F. Belleflamme, G. 
 Tabacchi, A. Gloess, M. Lass, I. Bethune, C. J. Mundy, C. Plessl, M. Watkins, 
 J. VandeVondele, M. Krack, J. Hutter.
 J. Chem. Phys. 152, 194103 (2020).
 CP2K: An electronic structure and molecular dynamics software package - 
 Quickstep: Efficient and accurate electronic structure calculations.
 https://doi.org/10.1063/5.0007045

 O. Schuett, P. Messmer, J. Hutter, J. VandeVondele.
 Electronic Structure Calculations on Graphics Processing Units, 173-190 (2016).
 GPU-Accelerated Sparse Matrix-Matrix Multiplication for Linear Scaling Density 
 Functional Theory.
 https://doi.org/10.1002/9781118670712.ch8

 A. Heinecke, G. Henry, M. Hutchinson, H. Pabst.
 Proceedings of Intl. Supercomputing Conference, 981-991 (2016).
 LIBXSMM: Accelerating Small Matrix Multiplications by Runtime Code Generation.
 https://doi.org/10.1109/SC.2016.83

 J. Hutter, M. Iannuzzi, F. Schiffmann, J. VandeVondele.
 WIREs Comput Mol Sci. 4, 15-25 (2014).
 CP2K: atomistic simulations of condensed matter systems.
 https://doi.org/10.1002/wcms.1159

 U. Borstnik, J. VandeVondele, V. Weber, J. Hutter.
 Parallel Comput. 40, 47-58 (2014).
 Sparse matrix multiplication: The distributed block-compressed sparse row 
 library.
 https://doi.org/10.1016/j.parco.2014.03.012

 A. Marek, V. Blum, R. Johanni, V. Havu, B. Lang, T. Auckenthaler, A. Heinecke, 
 H. Bungartz, H. Lederer.
 J. Phys. Condens. Matter 26, 213201 (2014).
 The ELPA library: scalable parallel eigenvalue solutions for electronic 
 structure theory and computational science.
 https://doi.org/10.1088/0953-8984/26/21/213201

 M. Guidon, J. Hutter, J. VandeVondele.
 J. Chem. Theory Comput. 5, 3010-3021 (2009).
 Robust Periodic Hartree-Fock Exchange for Large-Scale Simulations Using 
 Gaussian Basis Sets.
 https://doi.org/10.1021/ct900494g

 M. Guidon, F. Schiffmann, J. Hutter, J. VandeVondele.
 J. Chem. Phys. 128, 214104 (2008).
 Ab initio molecular dynamics using hybrid density functionals.
 https://doi.org/10.1063/1.2931945

 L. Genovese, T. Deutsch, S. Goedecker.
 J. Chem. Phys. 127, 054704 (2007).
 Efficient and accurate three-dimensional Poisson solver for surface problems.
 https://doi.org/10.1063/1.2754685

 J. VandeVondele, J. Hutter.
 J. Chem. Phys. 127, 114105 (2007).
 Gaussian basis sets for accurate calculations on molecular systems in gas and 
 condensed phases.
 https://doi.org/10.1063/1.2770708

 L. Genovese, T. Deutsch, A. Neelov, S. Goedecker, G. Beylkin.
 J. Chem. Phys. 125, 074105 (2006).
 Efficient solution of Poisson's equation with free boundary conditions.
 https://doi.org/10.1063/1.2335442

 M. Iannuzzi, T. Chassaing, T. Wallman, J. Hutter.
 CHIMIA 59, 499-503 (2005).
 Ground and excited state density functional calculations with the Gaussian and 
 augmented-plane-wave method.
 https://doi.org/10.2533/000942905777676164

 M. Frigo, S. G. Johnson.
 Proc. IEEE 93, 216-231 (2005).
 The design and implementation of FFTW3.
 https://doi.org/10.1109/JPROC.2004.840301

 R. L. Martin.
 J. Chem. Phys. 118, 4775-4777 (2003).
 Natural transition orbitals.
 https://doi.org/10.1063/1.1558471

 M. Krack, M. Parrinello.
 Phys. Chem. Chem. Phys. 2, 2105-2112 (2000).
 All-electron ab-initio molecular dynamics.
 https://doi.org/10.1039/b001167n

 G. Lippert, J. Hutter, M. Parrinello.
 Theor. Chem. Acc. 103, 124-140 (1999).
 The Gaussian and augmented-plane-wave density functional method for ab initio 
 molecular dynamics simulations.
 https://doi.org/10.1007/s002140050523

 J. P. Perdew, K. Burke, M. Ernzerhof.
 Phys. Rev. Lett. 77, 3865-3868 (1996).
 Generalized gradient approximation made simple.
 https://doi.org/10.1103/PhysRevLett.77.3865


 -------------------------------------------------------------------------------
 -                                                                             -
 -                                T I M I N G                                  -
 -                                                                             -
 -------------------------------------------------------------------------------
 SUBROUTINE                       CALLS  ASD         SELF TIME        TOTAL TIME
                                MAXIMUM       AVERAGE  MAXIMUM  AVERAGE  MAXIMUM
 CP2K                                 1  1.0    0.020    0.037 1586.772 1586.776
 qs_energies                          1  2.0    0.000    0.000 1586.348 1586.352
 integrate_four_center              432  9.8   70.074   85.225 1148.743 1148.856
 scf_env_do_scf                       1  3.0    0.000    0.000 1036.416 1036.422
 scf_env_do_scf_inner_loop           72  4.0    0.001    0.004 1036.416 1036.422
 qs_ks_update_qs_env                 72  5.0    0.000    0.001 1002.174 1002.355
 rebuild_ks_matrix                   72  6.0    0.000    0.000 1002.166 1002.347
 qs_ks_build_kohn_sham_matrix        72  7.0    0.010    0.012 1002.166 1002.347
 integrate_four_center_main         432 10.8    6.031   93.677  703.063  985.975
 integrate_four_center_bin        84384 11.8  697.032  985.043  697.032  985.043
 hfx_ks_matrix                       72  8.0    0.001    0.002  907.850  907.881
 mp_sync                           2290 11.5  310.405  665.752  310.405  665.752
 qs_energies_properties               1  3.0    0.000    0.000  548.167  548.169
 tddfpt                               1  4.0    0.000    0.000  548.167  548.169
 tddfpt_energies                      1  5.0    0.003    0.010  548.105  548.106
 tddfpt_davidson_solver               1  6.0    0.001    0.001  544.766  544.768
 tddfpt_compute_Aop_evects            9  7.0    0.000    0.000  542.673  542.675
 fhxc_kernel                          9  8.0    0.011    0.019  298.614  298.615
 tddfpt_apply_hfx                     9  8.0    0.002    0.003  243.585  243.586
 tddft_hfx_matrix                   360  9.0    0.004    0.007  240.902  240.999
 fft_wrap_pw1pw2                   5126 11.1    0.101    0.135  154.842  163.119
 fft_wrap_pw1pw2_250               3608 12.1    2.871    3.784  147.020  159.789
 fft3d_ps                          5126 13.1   18.062   24.984  143.342  151.167
 mp_alltoall_z22v                  5126 15.1  119.529  127.073  119.529  127.073
 tddfpt_apply_coulomb               180  9.0    0.003    0.004   97.655  100.667
 pw_poisson_solve                   252  9.4    1.034    1.426   94.465   97.480
 qs_rho_update_rho_low              254  7.8    0.003    0.003   87.497   87.541
 x_to_yz                           2092 13.7    2.315    3.840   75.529   77.901
 calculate_rho_elec                 254  8.8    0.333    0.472   74.798   74.818
 prepare_gapw_den                   253  8.7    0.005    0.006   72.204   74.624
 calc_screening_functions             1 10.0   56.823   57.824   57.642   58.650
 yz_to_x                           2022 14.5    1.762    2.006   47.934   53.973
 xc_pw_derive                      1515 11.0    0.012    0.014   51.302   53.394
 calculate_rho_atom                1012  9.7    5.273   49.466    5.273   49.466
 integrate_v_rspace                 252  9.0    0.007    0.009   46.568   49.118
 mp_sum_dv                        35731  8.8   44.539   46.618   44.539   46.618
 density_rs2pw                      254  9.8    0.011    0.013   42.730   46.201
 tddfpt_apply_xc_analytic           180  9.0    0.287    0.425   44.663   45.963
 potential_pw2rs                    252 10.0    0.026    0.033   44.256   44.442
 transfer_pw2rs                    1261 10.9    0.024    0.032   42.172   43.540
 ps_wavelet_solve                   252 10.4   15.061   21.091   36.091   38.757
 gaVxcgb_GC                         756  9.7    0.844   38.258    0.844   38.258
 mp_sum_d                         11861  7.3   22.293   36.996   22.293   36.996
 mp_waitany                       84050 12.8   31.621   36.840   31.621   36.840
 xc_pw_divergence                   252 10.7    0.005    0.006   33.621   34.616
 grid_collocate_task_list           254  9.8   29.352   33.226   29.352   33.226
 transfer_rs2pw                    1270 10.8    0.032    0.049   27.574   30.267
 calculate_xc_2nd_deriv_atom        180  9.0    0.096    1.782    0.742   29.527
 xc_calc_2nd_deriv_analytical      1260 10.1    1.283    1.606   25.879   26.540
 transfer_pw2rs_250                 505 11.7    4.878    5.484   24.512   26.339
 mp_alltoall_d54                    252 11.4   10.600   22.950   10.600   22.950
 put_rho0_on_grid                   253  9.7    0.364    0.573   20.186   22.616
 integrate_vhg0_rspace              252  9.4    1.280    1.380   19.438   20.240
 qs_vxc_create                       72  8.0    0.001    0.001   20.056   20.057
 xc_vxc_pw_create                    72  9.0    0.151    0.215   20.056   20.056
 transfer_rs2pw_250                 508 11.8    5.078    5.519   17.072   19.660
 mp_sum_dm                        11505 10.0   17.011   18.484   17.011   18.484
 mp_waitall_1                    493110 13.2   14.360   17.207   14.360   17.207
 integrate_four_center_getP         432 10.8    0.310    0.406   13.219   15.175
 mp_alltoall_d11v                 15932 11.6    9.652   14.788    9.652   14.788
 fft_wrap_pw1pw2_90                 506 11.9    0.100    0.192    6.436   14.731
 mp_alltoall_d45                    253 11.4   10.789   13.400   10.789   13.400
 transfer_pw2rs_90                  252 12.0    0.939    1.098   10.481   13.318
 calculate_rho_atom_coeff           254  8.8    0.688    1.245   12.696   12.725
 mp_isend_dm3                     11138 12.8    7.819   11.874    7.819   11.874
 sum_up_and_integrate                72  8.0    0.001    0.002   10.897   11.632
 calculate_vxc_atom                  72  8.0    0.040    0.370   11.401   11.401
 xc_rho_set_and_dset_create          73 10.0    0.186    0.244    9.440   10.517
 Vh_1c_gg_integrals                 252  9.4    0.104    3.115    4.077    8.331
 cp2k_distribution_to_z_slices      252 10.4    1.048    1.289    6.765    7.576
 transfer_pw2rs_30                  252 12.0    1.103    1.271    6.162    7.312
 update_ks_atom                     252  8.7    0.392    1.030    5.094    6.601
 mp_bcast_dm                       7560  9.7    4.701    6.438    4.701    6.438
 gspace_mixing                       71  5.0    0.093    0.132    6.422    6.434
 transfer_rs2pw_90                  254 11.8    1.189    1.439    5.938    6.238
 pw_integral_ab_c1d_c1d_gs          252 10.4    0.711    0.814    2.631    5.673
 rs_grid_zero                      1263 11.9    4.346    4.755    4.346    4.755
 grid_integrate_task_list           252 10.0    0.433    4.562    0.433    4.562
 rs_gather_matrices                 252 10.0    0.006    0.028    1.871    4.501
 cp_dbcsr_sm_fm_multiply           1126  8.6    0.014    0.017    4.088    4.332
 pw_derive                         2271 11.8    3.827    4.139    3.827    4.139
 transfer_rs2pw_30                  254 11.8    1.400    1.577    3.509    3.748
 pw_copy                           3425 11.0    3.233    3.672    3.233    3.672
 qs_scf_new_mos                      72  5.0    0.001    0.001    3.355    3.431
 cp_fm_diag_elpa                    123  7.2    0.000    0.000    3.302    3.313
 pw_gather_p                       2530 13.4    2.750    3.239    2.750    3.239
 calculate_rho0_atom               1012  9.7    2.938    3.172    2.938    3.172
 cp_fm_diag_elpa_base               123  8.3    1.945    3.064    1.961    3.096
 pw_scatter_p                      2596 12.8    2.754    3.081    2.754    3.081
 broyden_mixing                      71  6.0    2.891    2.929    3.021    3.044
 mp_sum_l                          5970 10.6    1.438    3.015    1.438    3.015
 mp_sendrecv_dv                   97028 12.8    2.717    2.989    2.717    2.989
 eigensolver_symm                    72  6.0    0.004    0.006    2.913    2.924
 parallel_gemm_fm                  1658  8.3    0.002    0.002    2.703    2.760
 parallel_gemm_fm_cosma            1658  9.3    2.702    2.758    2.702    2.758
 integrate_four_center_dist_KS      432 10.8    0.137    0.165    2.741    2.747
 pw_copy_to_array                  2530 13.4    1.862    2.683    1.862    2.683
 dbcsr_multiply_generic            1558 10.3    0.039    0.056    2.370    2.650
 integrate_four_center_load         432 10.8    0.001    0.002    1.023    2.580
 hfx_load_balance                     1 11.0    0.000    0.000    1.022    2.579
 hfx_load_balance_range               1 12.0    0.000    0.000    1.009    2.566
 pw_poisson_set                     253 10.4    0.005    0.006    2.306    2.374
 dbcsr_complete_redistribute       3753 10.5    0.116    0.209    2.134    2.372
 tddfpt_print_nto_analysis            1  6.0    0.004    0.008    2.368    2.368
 cp_fm_redistribute_end             123  8.2    1.195    2.337    1.205    2.345
 mp_max_i                           753  5.0    1.127    2.338    1.127    2.338
 mp_alltoall_i22                   4974 11.4    1.774    2.328    1.774    2.328
 cp_dbcsr_sm_fm_multiply_core      1126  9.6    0.002    0.002    1.806    2.077
 xc_functional_eval                1585 10.9    0.001    0.004    0.896    1.882
 pbe_lda_eval                      1585 11.9    0.895    1.879    0.895    1.879
 copy_dbcsr_to_fm                  1220  9.3    0.009    0.010    1.457    1.822
 pw_axpy                           2708 10.8    1.440    1.714    1.440    1.714
 copy_fm_to_dbcsr                  2531  9.6    0.007    0.008    1.388    1.653
 cp_fm_geeig                         20  7.0    0.001    0.001    1.634    1.636
 pw_zero                           2778 10.6    1.385    1.631    1.385    1.631
 multiply_cannon                   1558 11.3    0.091    0.107    1.207    1.531
 calc_pair_dist_radii                 1 10.0    0.935    0.959    1.503    1.518
 powell_optimize                 900936 11.0    1.387    1.459    1.387    1.459
 pw_copy_from_array                2596 12.8    1.047    1.365    1.047    1.365
 multiply_cannon_loop              1558 12.3    0.099    0.105    0.936    1.237
 fft_wrap_pw1pw2_30                 506 11.9    0.013    0.015    0.920    1.194
 qs_energies_init_hamiltonians        1  3.0    0.000    0.000    1.194    1.194
 build_core_hamiltonian_matrix        1  4.0    0.000    0.000    1.189    1.189
 overlap_condnum                      1  5.0    0.000    0.001    1.175    1.188
 transfer_rs2pw_10                  254 11.8    0.416    0.485    1.023    1.114
 arnoldi_conjugate_gradient           5  6.0    0.018    0.023    1.105    1.105
 transfer_pw2rs_10                  252 12.0    0.292    0.324    0.994    1.078
 mp_alltoall_z11v                  1012 14.9    0.816    1.066    0.816    1.066
 dbcsr_desymmetrize_deep           1221 10.3    0.017    0.024    0.612    0.960
 multiply_cannon_metrocomm3       37392 13.3    0.053    0.057    0.462    0.901
 tddfpt_orthonormalize_psi1_psi      10  6.9    0.010    0.012    0.863    0.864
 tddfpt_compute_residual_vects        8  7.0    0.000    0.001    0.825    0.826
 mp_isendrecv_dv                 261288 12.3    0.207    0.814    0.207    0.814
 mp_rank_compare                   5126 14.1    0.734    0.799    0.734    0.799
 pw_poisson_rebuild                 252 10.4    0.000    0.000    0.744    0.771
 ps_wavelet_create                    1 10.0    0.000    0.000    0.744    0.771
 RS_z_slice_distribution              1 11.0    0.193    0.219    0.744    0.771
 cp_dbcsr_plus_fm_fm_t              252  8.4    0.002    0.002    0.747    0.771
 prepare_dr1dr                     1260 11.1    0.553    0.746    0.553    0.746
 dbcsr_sym_matrix_vector_mult      6215  7.0    0.045    0.048    0.636    0.708
 mp_irecv_dm3                     11138 12.8    0.255    0.696    0.255    0.696
 tddfpt_construct_ground_state_       1  6.0    0.000    0.000    0.674    0.682
 multiply_cannon_metrocomm1       37392 13.3    0.020    0.022    0.154    0.671
 make_m2s                          3116 11.3    0.029    0.030    0.611    0.666
 make_images                       3116 12.3    0.086    0.098    0.541    0.588
 xz_to_yz                           508 13.8    0.027    0.032    0.456    0.576
 yz_to_xz                           504 14.0    0.035    0.041    0.422    0.575
 mp_isend_dv                     147696 13.6    0.178    0.541    0.178    0.541
 offload_free_buffer                260 10.2    0.386    0.514    0.386    0.514
 init_scf_run                         1  3.0    0.000    0.000    0.483    0.483
 tddfpt_apply_energy_diff             9  8.0    0.000    0.000    0.474    0.475
 fft_wrap_pw1pw2_10                 506 11.9    0.004    0.005    0.365    0.460
 scf_env_initial_rho_setup            1  4.0    0.000    0.000    0.439    0.441
 multiply_cannon_metrocomm4       35834 13.3    0.055    0.065    0.100    0.429
 dbcsr_rep_row_to_rep_col_vec      6215  8.0    0.016    0.022    0.207    0.420
 cp_fm_trace_a1b1t1_aa            16500  8.0    0.029    0.032    0.398    0.407
 multiply_cannon_multrec          37392 13.3    0.035    0.365    0.039    0.369
 xc_2nd_deriv_of_r                 1080 10.0    0.001    0.045    0.010    0.367
 make_images_sizes                 3116 13.3    0.002    0.003    0.316    0.334
 mp_alltoall_i44                   3116 14.3    0.314    0.331    0.314    0.331
 cp_fm_cholesky_decompose            20  8.0    0.325    0.327    0.325    0.327
 tddfpt_orthogonalize_psi1_psi0      10  6.9    0.000    0.000    0.294    0.317
 cp_fm_triangular_invert             20  8.0    0.316    0.317    0.316    0.317
 rs_scatter_matrices                254  9.8    0.003    0.010    0.031    0.310
 scale_and_distribute               504 11.4    0.191    0.289    0.191    0.289
 mp_cart_sub                       2444 11.3    0.278    0.281    0.278    0.281
 dbcsr_col_vec_to_rep_row          6215  8.0    0.021    0.026    0.171    0.278
 mp_alltoall_i11v                 12480 11.5    0.113    0.261    0.113    0.261
 dbcsr_finalize                   16819 11.3    0.021    0.050    0.130    0.222
 cp_fm_triangular_multiply           60  8.0    0.219    0.220    0.219    0.220
 mp_cart_create                    2233 10.6    0.192    0.207    0.194    0.210
 calculate_dm_sparse                 72  6.0    0.000    0.001    0.183    0.203
 dbcsr_add_d                       9377  7.0    0.004    0.005    0.033    0.192
 qs_init_subsys                       1  2.0    0.003    0.003    0.190    0.190
 dbcsr_add_anytype                 9377  8.0    0.005    0.025    0.029    0.187
 create_qs_kind_set                   1  2.0    0.000    0.000    0.168    0.169
 read_qs_kind                         4  3.0    0.067    0.092    0.168    0.169
 cp_fm_symm                          72  7.0    0.158    0.163    0.158    0.163
 create_kernel_env                    1  6.0    0.000    0.000    0.141    0.162
 xc_prep_2nd_deriv                    1  7.0    0.000    0.000    0.141    0.162
 mp_allgather_i34                  1558 12.3    0.124    0.161    0.124    0.161
 qs_env_setup                         1  3.0    0.000    0.000    0.156    0.159
 -------------------------------------------------------------------------------

 The number of warnings for this run is : 1
 
 -------------------------------------------------------------------------------
  **** **** ******  **  PROGRAM ENDED AT                 2025-03-21 02:41:10.289
 ***** ** ***  *** **   PROGRAM RAN ON                                  n2cn0487
 **    ****   ******    PROGRAM RAN BY                                  metdyn02
 ***** **    ** ** **   PROGRAM PROCESS ID                                 38326
  **** **  *******  **  PROGRAM STOPPED IN /scratch/hpc-prf-metdyn/metdyn02_Remi
                                           /10_MOL/05_MOL/aUKBqsEOTmq69kFe5R_nOg
                                           /5k_set_final_qzvp/VIFRUX01/TZVP/TDDF
                                           T/RILIM
