 DBCSR| CPU Multiplication driver                                           BLAS (U)
 DBCSR| Multrec recursion limit                                              512 (U)
 DBCSR| Multiplication stack size                                           1000 (D)
 DBCSR| Maximum elements for images                                    UNLIMITED (U)
 DBCSR| Multiplicative factor virtual images                                   1 (U)
 DBCSR| Use multiplication densification                                       T (D)
 DBCSR| Multiplication size stacks                                             3 (U)
 DBCSR| Use memory pool for CPU allocation                                     F (U)
 DBCSR| Number of 3D layers                                               SINGLE (U)
 DBCSR| Use MPI memory allocation                                              F (U)
 DBCSR| Use RMA algorithm                                                      F (U)
 DBCSR| Use Communication thread                                               T (U)
 DBCSR| Communication thread load                                             75 (D)
 DBCSR| MPI: My process id                                                     0
 DBCSR| MPI: Number of processes                                              96
 DBCSR| OMP: Current number of threads                                         4
 DBCSR| OMP: Max number of threads                                             4
 DBCSR| Split modifier for TAS multiplication algorithm                  1.0E+00 (U)


  **** **** ******  **  PROGRAM STARTED AT               2025-04-28 05:59:58.279
 ***** ** ***  *** **   PROGRAM STARTED ON                          i03r03c03s12
 **    ****   ******    PROGRAM STARTED BY                               di38fab
 ***** **    ** ** **   PROGRAM PROCESS ID                               2104842
  **** **  *******  **  PROGRAM STARTED IN /hppfs/scratch/04/di38fab/07_MOL_non_
                                           aug/05_MOL_non_aug/05_MOL/W4-11+ALK/o
                                           3/cc-pVDZ/TDDFT

 CP2K| version string:                 CP2K version 2025.1 (Development Version)
 CP2K| source code revision number:                             unknown revision
 CP2K| cp2kflags: omp libint fftw3 libxc parallel scalapack max_contr=4         
 CP2K| is freely available from                            https://www.cp2k.org/
 CP2K| Program compiled at                         Thu Apr 10 16:20:23 CEST 2025
 CP2K| Program compiled on                                               login01
 CP2K| Program compiled for                                        Supermuc-foss
 CP2K| Data directory path                  /hppfs/work/pn36zo/di38fab/cp2k/data
 CP2K| Input file name                                                    GW.inp

 GLOBAL| Force Environment number                                              1
 GLOBAL| Basis set file name            /hppfs/scratch/04/di38fab/04_TMD/BASIS_A
 GLOBAL| Potential file name            /hppfs/work/pn36zo/di38fab/cp2k/data/ALL
 GLOBAL| MM Potential file name                                     MM_POTENTIAL
 GLOBAL| Coordinate file name                                      __STD_INPUT__
 GLOBAL| Method name                                                        CP2K
 GLOBAL| Project name                                                       MoS2
 GLOBAL| Run type                                                         ENERGY
 GLOBAL| FFT library                                                       FFTW3
 GLOBAL| Diagonalization library                                       ScaLAPACK
 GLOBAL| DGEMM library                                                      BLAS
 GLOBAL| Orthonormality check for eigenvectors                          DISABLED
 GLOBAL| Matrix multiplication library                                 ScaLAPACK
 GLOBAL| All-to-all communication in single precision                          F
 GLOBAL| FFTs using library dependent lengths                                  F
 GLOBAL| Grid backend                                                       AUTO
 GLOBAL| Global print level                                               MEDIUM
 GLOBAL| MPI I/O enabled                                                       T
 GLOBAL| Total number of message passing processes                            96
 GLOBAL| Number of threads for this process                                    4
 GLOBAL| This output is from process                                           0
 GLOBAL| OpenMP stack size per thread (OMP_STACKSIZE)                    default
 GLOBAL| CPU model name             Intel(R) Xeon(R) Platinum 8174 CPU @ 3.10GHz

 MEMORY| system memory details [Kb]
 MEMORY|                        rank 0           min           max       average
 MEMORY| MemTotal             98436660      98436660      98436692      98436664
 MEMORY| MemFree              84974036      84846316      85062036      84953724
 MEMORY| Buffers                     0             0             0             0
 MEMORY| Cached                2394064       2375940       2402232       2390140
 MEMORY| Slab                  1077488       1067092       1107124       1080010
 MEMORY| SReclaimable           247456        238548        262376        246139
 MEMORY| MemLikelyFree        87615556      87478040      87696412      87590003


 *** Fundamental physical constants (SI units) ***

 *** Literature: B. J. Mohr and B. N. Taylor,
 ***             CODATA recommended values of the fundamental physical
 ***             constants: 2006, Web Version 5.1
 ***             http://physics.nist.gov/constants

 Speed of light in vacuum [m/s]                             2.99792458000000E+08
 Magnetic constant or permeability of vacuum [N/A**2]       1.25663706143592E-06
 Electric constant or permittivity of vacuum [F/m]          8.85418781762039E-12
 Planck constant (h) [J*s]                                  6.62606896000000E-34
 Planck constant (h-bar) [J*s]                              1.05457162825177E-34
 Elementary charge [C]                                      1.60217648700000E-19
 Electron mass [kg]                                         9.10938215000000E-31
 Electron g factor [ ]                                     -2.00231930436220E+00
 Proton mass [kg]                                           1.67262163700000E-27
 Fine-structure constant                                    7.29735253760000E-03
 Rydberg constant [1/m]                                     1.09737315685270E+07
 Avogadro constant [1/mol]                                  6.02214179000000E+23
 Boltzmann constant [J/K]                                   1.38065040000000E-23
 Atomic mass unit [kg]                                      1.66053878200000E-27
 Bohr radius [m]                                            5.29177208590000E-11

 *** Conversion factors ***

 [u] -> [a.u.]                                              1.82288848426455E+03
 [Angstrom] -> [Bohr] = [a.u.]                              1.88972613288564E+00
 [a.u.] = [Bohr] -> [Angstrom]                              5.29177208590000E-01
 [a.u.] -> [s]                                              2.41888432650478E-17
 [a.u.] -> [fs]                                             2.41888432650478E-02
 [a.u.] -> [J]                                              4.35974393937059E-18
 [a.u.] -> [N]                                              8.23872205491840E-08
 [a.u.] -> [K]                                              3.15774647902944E+05
 [a.u.] -> [kJ/mol]                                         2.62549961709828E+03
 [a.u.] -> [kcal/mol]                                       6.27509468713739E+02
 [a.u.] -> [Pa]                                             2.94210107994716E+13
 [a.u.] -> [bar]                                            2.94210107994716E+08
 [a.u.] -> [atm]                                            2.90362800883016E+08
 [a.u.] -> [eV]                                             2.72113838565563E+01
 [a.u.] -> [Hz]                                             6.57968392072181E+15
 [a.u.] -> [1/cm] (wave numbers)                            2.19474631370540E+05
 [a.u./Bohr**2] -> [1/cm]                                   5.14048714338585E+03
 

 CELL_TOP| Volume [angstrom^3]:                                     27000.000000
 CELL_TOP| Vector a [angstrom    30.000     0.000     0.000   |a| =    30.000000
 CELL_TOP| Vector b [angstrom     0.000    30.000     0.000   |b| =    30.000000
 CELL_TOP| Vector c [angstrom     0.000     0.000    30.000   |c| =    30.000000
 CELL_TOP| Angle (b,c), alpha [degree]:                                90.000000
 CELL_TOP| Angle (a,c), beta  [degree]:                                90.000000
 CELL_TOP| Angle (a,b), gamma [degree]:                                90.000000
 CELL_TOP| Numerically orthorhombic:                                         YES
 CELL_TOP| Periodicity                                                      NONE

 GENERATE|  Preliminary Number of Bonds generated:                             0
 GENERATE|  Achieved consistency in connectivity generation.

 CELL| Volume [angstrom^3]:                                         27000.000000
 CELL| Vector a [angstrom]:      30.000     0.000     0.000   |a| =    30.000000
 CELL| Vector b [angstrom]:       0.000    30.000     0.000   |b| =    30.000000
 CELL| Vector c [angstrom]:       0.000     0.000    30.000   |c| =    30.000000
 CELL| Angle (b,c), alpha [degree]:                                    90.000000
 CELL| Angle (a,c), beta  [degree]:                                    90.000000
 CELL| Angle (a,b), gamma [degree]:                                    90.000000
 CELL| Numerically orthorhombic:                                             YES
 CELL| Periodicity                                                          NONE

 CELL_REF| Volume [angstrom^3]:                                     27000.000000
 CELL_REF| Vector a [angstrom    30.000     0.000     0.000   |a| =    30.000000
 CELL_REF| Vector b [angstrom     0.000    30.000     0.000   |b| =    30.000000
 CELL_REF| Vector c [angstrom     0.000     0.000    30.000   |c| =    30.000000
 CELL_REF| Angle (b,c), alpha [degree]:                                90.000000
 CELL_REF| Angle (a,c), beta  [degree]:                                90.000000
 CELL_REF| Angle (a,b), gamma [degree]:                                90.000000
 CELL_REF| Numerically orthorhombic:                                         YES
 CELL_REF| Periodicity                                                      NONE

 *******************************************************************************
 *******************************************************************************
 **                                                                           **
 **     #####                         ##              ##                      **
 **    ##   ##            ##          ##              ##                      **
 **   ##     ##                       ##            ######                    **
 **   ##     ##  ##   ##  ##   #####  ##  ##   ####   ##    #####    #####    **
 **   ##     ##  ##   ##  ##  ##      ## ##   ##      ##   ##   ##  ##   ##   **
 **   ##  ## ##  ##   ##  ##  ##      ####     ###    ##   ######   ######    **
 **    ##  ###   ##   ##  ##  ##      ## ##      ##   ##   ##       ##        **
 **     #######   #####   ##   #####  ##  ##  ####    ##    #####   ##        **
 **           ##                                                    ##        **
 **                                                                           **
 **                                                ... make the atoms dance   **
 **                                                                           **
 **            Copyright (C) by CP2K developers group (2000-2025)             **
 **                      J. Chem. Phys. 152, 194103 (2020)                    **
 **                                                                           **
 *******************************************************************************

 DFT| Spin restricted Kohn-Sham (RKS) calculation                            RKS
 DFT| Multiplicity                                                             1
 DFT| Number of spin states                                                    1
 DFT| Charge                                                                   0
 DFT| Self-interaction correction (SIC)                                       NO
 DFT| Cutoffs: density                                              1.000000E-10
 DFT|          gradient                                             1.000000E-10
 DFT|          tau                                                  1.000000E-10
 DFT|          cutoff_smoothing_range                               0.000000E+00
 DFT| XC density smoothing                                                  NONE
 DFT| XC derivatives                                                          PW

 FUNCTIONAL| PBE:
 FUNCTIONAL| J.P.Perdew, K.Burke, M.Ernzerhof, Phys. Rev. Letter, vol. 77, n 18,
 FUNCTIONAL|  pp. 3865-3868, (1996)sx=0.750sc=1.000{spin unpolarized}           


 QS| Method:                                                                GAPW
 QS| Density plane wave grid type                        NON-SPHERICAL FULLSPACE
 QS| Number of grid levels:                                                    4
 QS| Density cutoff [a.u.]:                                                250.0
 QS| Multi grid cutoff [a.u.]: 1) grid level                               250.0
 QS|                           2) grid level                                83.3
 QS|                           3) grid level                                27.8
 QS|                           4) grid level                                 9.3
 QS| Grid level progression factor:                                          3.0
 QS| Relative density cutoff [a.u.]:                                        50.0
 QS| Interaction thresholds: eps_pgf_orb:                                1.0E-12
 QS|                         eps_filter_matrix:                          0.0E+00
 QS|                         eps_core_charge:                            1.0E-14
 QS|                         eps_rho_gspace:                             1.0E-12
 QS|                         eps_rho_rspace:                             1.0E-12
 QS|                         eps_gvg_rspace:                             1.0E-06
 QS|                         eps_ppl:                                    1.0E-02
 QS|                         eps_ppnl:                                   1.0E-08
 QS| GAPW|      One center basis from orbital basis primitives
 QS| GAPW|                   eps_fit:                                    1.0E-04
 QS| GAPW|                   eps_iso:                                    1.0E-12
 QS| GAPW|                   eps_svd:                                    1.0E-08
 QS| GAPW|                   eps_cpc:                                    1.0E-12
 QS| GAPW|   atom-r-grid: quadrature:                                     GC_LOG
 QS| GAPW|      atom-s-grid:  max l :                                          4
 QS| GAPW|      max_l_rho0 :                                                   2


 ATOMIC KIND INFORMATION

  1. Atomic kind: O                                     Number of atoms:       3

     Orbital Basis Set                                                   cc-pVDZ

       Number of orbital shell sets:                                           3
       Number of orbital shells:                                               6
       Number of primitive Cartesian functions:                               14
       Number of Cartesian basis functions:                                   15
       Number of spherical basis functions:                                   14
       Norm type:                                                              2

       Normalised Cartesian orbitals:

                        Set   Shell   Orbital            Exponent    Coefficient

                          1       1    1px              17.700000       2.226162
                                                         3.854000       1.761976
                                                         1.046000       0.767079
                                                         0.275300       0.130905
                          1       1    1py              17.700000       2.226162
                                                         3.854000       1.761976
                                                         1.046000       0.767079
                                                         0.275300       0.130905
                          1       1    1pz              17.700000       2.226162
                                                         3.854000       1.761976
                                                         1.046000       0.767079
                                                         0.275300       0.130905

                          1       2    2px              17.700000       0.000000
                                                         3.854000       0.000000
                                                         1.046000       0.000000
                                                         0.275300       0.284248
                          1       2    2py              17.700000       0.000000
                                                         3.854000       0.000000
                                                         1.046000       0.000000
                                                         0.275300       0.284248
                          1       2    2pz              17.700000       0.000000
                                                         3.854000       0.000000
                                                         1.046000       0.000000
                                                         0.275300       0.284248

                          2       1    1s            11720.000000       0.569986
                                                      1759.000000       1.058881
                                                       400.800000       1.777168
                                                       113.700000       2.600710
                                                        37.030000       3.028357
                                                        13.270000       2.223504
                                                         5.025000       0.648119
                                                         1.013000       0.011124
                                                         0.302300      -0.000751

                          2       2    2s            11720.000000      -0.128448
                                                      1759.000000      -0.244491
                                                       400.800000      -0.400097
                                                       113.700000      -0.638166
                                                        37.030000      -0.758785
                                                        13.270000      -0.819649
                                                         5.025000      -0.279757
                                                         1.013000       0.401106
                                                         0.302300       0.166422

                          2       3    3s            11720.000000       0.000000
                                                      1759.000000       0.000000
                                                       400.800000       0.000000
                                                       113.700000       0.000000
                                                        37.030000       0.000000
                                                        13.270000       0.000000
                                                         5.025000       0.000000
                                                         1.013000       0.000000
                                                         0.302300       0.290562

                          3       1    1dx2              1.185000       2.215218
                          3       1    1dxy              1.185000       3.836871
                          3       1    1dxz              1.185000       3.836871
                          3       1    1dy2              1.185000       2.215218
                          3       1    1dyz              1.185000       3.836871
                          3       1    1dz2              1.185000       2.215218

     RI Auxiliary Basis Set                                        cc-pVDZ-RIFIT

       Number of orbital shell sets:                                          18
       Number of orbital shells:                                              18
       Number of primitive Cartesian functions:                               18
       Number of Cartesian basis functions:                                   66
       Number of spherical basis functions:                                   56
       Norm type:                                                              2

       Normalised Cartesian orbitals:

                        Set   Shell   Orbital            Exponent    Coefficient

                          1       1    1s                0.421376       0.372746

                          2       1    1dx2              0.592201       0.658007
                          2       1    1dxy              0.592201       1.139701
                          2       1    1dxz              0.592201       1.139701
                          2       1    1dy2              0.592201       0.658007
                          2       1    1dyz              0.592201       1.139701
                          2       1    1dz2              0.592201       0.658007

                          3       1    1px               0.612763       0.772780
                          3       1    1py               0.612763       0.772780
                          3       1    1pz               0.612763       0.772780

                          4       1    1s                0.905061       0.661330

                          5       1    1s                1.396380       0.915509

                          6       1    1px               1.403870       2.178205
                          6       1    1py               1.403870       2.178205
                          6       1    1pz               1.403870       2.178205

                          7       1    1fx3              1.790210       5.457433
                          7       1    1fx2y             1.790210      12.203191
                          7       1    1fx2z             1.790210      12.203191
                          7       1    1fxy2             1.790210      12.203191
                          7       1    1fxyz             1.790210      21.136547
                          7       1    1fxz2             1.790210      12.203191
                          7       1    1fy3              1.790210       5.457433
                          7       1    1fy2z             1.790210      12.203191
                          7       1    1fyz2             1.790210      12.203191
                          7       1    1fz3              1.790210       5.457433

                          8       1    1dx2              1.812210       4.658803
                          8       1    1dxy              1.812210       8.069284
                          8       1    1dxz              1.812210       8.069284
                          8       1    1dy2              1.812210       4.658803
                          8       1    1dyz              1.812210       8.069284
                          8       1    1dz2              1.812210       4.658803

                          9       1    1s                2.939600       1.600023

                         10       1    1px               3.205940       6.114829
                         10       1    1py               3.205940       6.114829
                         10       1    1pz               3.205940       6.114829

                         11       1    1fx3              4.221940      37.614611
                         11       1    1fx2y             4.221940      84.108828
                         11       1    1fx2z             4.221940      84.108828
                         11       1    1fxy2             4.221940      84.108828
                         11       1    1fxyz             4.221940     145.680763
                         11       1    1fxz2             4.221940      84.108828
                         11       1    1fy3              4.221940      37.614611
                         11       1    1fy2z             4.221940      84.108828
                         11       1    1fyz2             4.221940      84.108828
                         11       1    1fz3              4.221940      37.614611

                         12       1    1dx2              4.520870      23.070021
                         12       1    1dxy              4.520870      39.958448
                         12       1    1dxz              4.520870      39.958448
                         12       1    1dy2              4.520870      23.070021
                         12       1    1dyz              4.520870      39.958448
                         12       1    1dz2              4.520870      23.070021

                         13       1    1s                9.551480       3.872247

                         14       1    1px              10.881700      28.171568
                         14       1    1py              10.881700      28.171568
                         14       1    1pz              10.881700      28.171568

                         15       1    1dx2             15.251100     193.725371
                         15       1    1dxy             15.251100     335.542185
                         15       1    1dxz             15.251100     335.542185
                         15       1    1dy2             15.251100     193.725371
                         15       1    1dyz             15.251100     335.542185
                         15       1    1dz2             15.251100     193.725371

                         16       1    1s               25.578000       8.106064

                         17       1    1px              36.129200     126.259196
                         17       1    1py              36.129200     126.259196
                         17       1    1pz              36.129200     126.259196

                         18       1    1s              109.461000      24.118742

       Atomic covalent radius [Angstrom]:                                  0.730

       Atomic van der Waals radius [Angstrom]:                             1.520

     The atoms of this atomic kind are PAW atoms (GAPW):
       Hard Gaussian function radius:                                      1.512
       Rho0 radius:                                                        1.512
       Maximum GTO radius used for PAW projector construction:            24.566

     GAPW Soft Basis Set                                            cc-pVDZ_soft

       Number of orbital shell sets:                                           3
       Number of orbital shells:                                               6
       Number of primitive Cartesian functions:                                6
       Number of Cartesian basis functions:                                   15
       Number of spherical basis functions:                                   14
       Norm type:                                                              2

       Normalised Cartesian orbitals:

                        Set   Shell   Orbital            Exponent    Coefficient

                          1       1    1px               3.854000       1.761976
                                                         1.046000       0.767079
                                                         0.275300       0.130905
                          1       1    1py               3.854000       1.761976
                                                         1.046000       0.767079
                                                         0.275300       0.130905
                          1       1    1pz               3.854000       1.761976
                                                         1.046000       0.767079
                                                         0.275300       0.130905

                          1       2    2px               3.854000       0.000000
                                                         1.046000       0.000000
                                                         0.275300       0.284248
                          1       2    2py               3.854000       0.000000
                                                         1.046000       0.000000
                                                         0.275300       0.284248
                          1       2    2pz               3.854000       0.000000
                                                         1.046000       0.000000
                                                         0.275300       0.284248

                          2       1    1s                1.013000       0.011124
                                                         0.302300      -0.000751

                          2       2    2s                1.013000       0.401106
                                                         0.302300       0.166422

                          2       3    3s                1.013000       0.000000
                                                         0.302300       0.290562

                          3       1    1dx2              1.185000       2.215218
                          3       1    1dxy              1.185000       3.836871
                          3       1    1dxz              1.185000       3.836871
                          3       1    1dy2              1.185000       2.215218
                          3       1    1dyz              1.185000       3.836871
                          3       1    1dz2              1.185000       2.215218

     AE Potential information for                                            ALL

       Description:                                       All-electron potential
                                          Krack, Parrinello, PCCP 2, 2105 (2000)

       Gaussian exponent of the core charge distribution:               8.154466
       Electronic configuration (s p d ...):                           4   4   0


 MOLECULE KIND INFORMATION


 All atoms are their own molecule, skipping detailed information


 TOTAL NUMBERS AND MAXIMUM NUMBERS

  Total number of            - Atomic kinds:                                   1
                             - Atoms:                                          3
                             - Shell sets:                                     9
                             - Shells:                                        18
                             - Primitive Cartesian functions:                 42
                             - Cartesian basis functions:                     45
                             - Spherical basis functions:                     42

  Maximum angular momentum of the orbital basis functions:                     2


 MODULE QUICKSTEP: ATOMIC COORDINATES IN ANGSTROM

   Atom Kind Element         X             Y             Z       Z(eff)     Mass
      1    1 O     8     15.000000     15.330918     15.000000   8.0000  15.9994
      2    1 O     8     13.917475     14.669082     15.000000   8.0000  15.9994
      3    1 O     8     16.082525     14.669082     15.000000   8.0000  15.9994



 SCF PARAMETERS         Density guess:                                   RESTART
                        --------------------------------------------------------
                        max_scf:                                             500
                        max_scf_history:                                       0
                        max_diis:                                              4
                        --------------------------------------------------------
                        eps_scf:                                        1.00E-06
                        eps_scf_history:                                0.00E+00
                        eps_diis:                                       1.00E-01
                        eps_eigval:                                     1.00E-05
                        --------------------------------------------------------
                        level_shift [a.u.]:                             0.000000
                        --------------------------------------------------------
                        Outer loop SCF in use 
                        No variables optimised in outer loop
                        eps_scf                                         1.00E-06
                        max_scf                                               20
                        No outer loop optimization
                        step_size                                       5.00E-01

 PW_GRID| Information for grid number                                          1
 PW_GRID| Grid distributed over                                    96 processors
 PW_GRID| Real space group dimensions                                    96    1
 PW_GRID| the grid is blocked:                                                NO
 PW_GRID| Cutoff [a.u.]                                                    250.0
 PW_GRID| spherical cutoff:                                                   NO
 PW_GRID|   Bounds   1           -202     202                Points:         405
 PW_GRID|   Bounds   2           -202     202                Points:         405
 PW_GRID|   Bounds   3           -202     202                Points:         405
 PW_GRID| Volume element (a.u.^3)  0.2743E-02     Volume (a.u.^3)    182205.0337
 PW_GRID| Grid span                                                    FULLSPACE
 PW_GRID|   Distribution                         Average         Max         Min
 PW_GRID|   G-Vectors                           691980.5      692145      691740
 PW_GRID|   G-Rays                                1708.6        1709        1708
 PW_GRID|   Real Space Points                   691980.5      820125      656100

 PW_GRID| Information for grid number                                          2
 PW_GRID| Number of the reference grid                                         1
 PW_GRID| Grid distributed over                                    96 processors
 PW_GRID| Real space group dimensions                                    96    1
 PW_GRID| the grid is blocked:                                                NO
 PW_GRID| Cutoff [a.u.]                                                     83.3
 PW_GRID| spherical cutoff:                                                   NO
 PW_GRID|   Bounds   1           -120     119                Points:         240
 PW_GRID|   Bounds   2           -120     119                Points:         240
 PW_GRID|   Bounds   3           -120     119                Points:         240
 PW_GRID| Volume element (a.u.^3)  0.1318E-01     Volume (a.u.^3)    182205.0337
 PW_GRID| Grid span                                                    FULLSPACE
 PW_GRID|   Distribution                         Average         Max         Min
 PW_GRID|   G-Vectors                           144000.0      144480      143760
 PW_GRID|   G-Rays                                 600.0         602         599
 PW_GRID|   Real Space Points                   144000.0      172800      115200

 PW_GRID| Information for grid number                                          3
 PW_GRID| Number of the reference grid                                         1
 PW_GRID| Grid distributed over                                    96 processors
 PW_GRID| Real space group dimensions                                    96    1
 PW_GRID| the grid is blocked:                                                NO
 PW_GRID| Cutoff [a.u.]                                                     27.8
 PW_GRID| spherical cutoff:                                                   NO
 PW_GRID|   Bounds   1            -67      67                Points:         135
 PW_GRID|   Bounds   2            -67      67                Points:         135
 PW_GRID|   Bounds   3            -67      67                Points:         135
 PW_GRID| Volume element (a.u.^3)  0.7406E-01     Volume (a.u.^3)    182205.0337
 PW_GRID| Grid span                                                    FULLSPACE
 PW_GRID|   Distribution                         Average         Max         Min
 PW_GRID|   G-Vectors                            25628.9       25785       25515
 PW_GRID|   G-Rays                                 189.8         191         189
 PW_GRID|   Real Space Points                    25628.9       36450       18225

 PW_GRID| Information for grid number                                          4
 PW_GRID| Number of the reference grid                                         1
 PW_GRID| Grid distributed over                                    96 processors
 PW_GRID| Real space group dimensions                                     8   12
 PW_GRID| the grid is blocked:                                                NO
 PW_GRID| Cutoff [a.u.]                                                      9.3
 PW_GRID| spherical cutoff:                                                   NO
 PW_GRID|   Bounds   1            -40      39                Points:          80
 PW_GRID|   Bounds   2            -40      39                Points:          80
 PW_GRID|   Bounds   3            -40      39                Points:          80
 PW_GRID| Volume element (a.u.^3)  0.3559         Volume (a.u.^3)    182205.0337
 PW_GRID| Grid span                                                    FULLSPACE
 PW_GRID|   Distribution                         Average         Max         Min
 PW_GRID|   G-Vectors                             5333.3        5520        5200
 PW_GRID|   G-Rays                                  66.7          69          65
 PW_GRID|   Real Space Points                     5333.3        5600        4800

 POISSON| Solver                                                         WAVELET
 POISSON| Wavelet| Scaling function                                           40
 POISSON| Periodicity                                                       NONE

 RS_GRID| Information for grid number                                          1
 RS_GRID|   Bounds   1           -202     202                Points:         405
 RS_GRID|   Bounds   2           -202     202                Points:         405
 RS_GRID|   Bounds   3           -202     202                Points:         405
 RS_GRID| Real space distribution over                                  4 groups
 RS_GRID| Real space distribution along direction                              1
 RS_GRID| Border size                                                         32
 RS_GRID| Real space distribution over                                  4 groups
 RS_GRID| Real space distribution along direction                              2
 RS_GRID| Border size                                                         32
 RS_GRID| Real space distribution over                                  6 groups
 RS_GRID| Real space distribution along direction                              3
 RS_GRID| Border size                                                         32
 RS_GRID|   Distribution                         Average         Max         Min
 RS_GRID|   Planes                                 165.2         166         165
 RS_GRID|   Distribution                         Average         Max         Min
 RS_GRID|   Planes                                 165.2         166         165
 RS_GRID|   Distribution                         Average         Max         Min
 RS_GRID|   Planes                                 131.5         132         131

 RS_GRID| Information for grid number                                          2
 RS_GRID|   Bounds   1           -120     119                Points:         240
 RS_GRID|   Bounds   2           -120     119                Points:         240
 RS_GRID|   Bounds   3           -120     119                Points:         240
 RS_GRID| Real space distribution over                                  4 groups
 RS_GRID| Real space distribution along direction                              1
 RS_GRID| Border size                                                         34
 RS_GRID| Real space distribution over                                  4 groups
 RS_GRID| Real space distribution along direction                              2
 RS_GRID| Border size                                                         34
 RS_GRID| Real space distribution over                                  6 groups
 RS_GRID| Real space distribution along direction                              3
 RS_GRID| Border size                                                         34
 RS_GRID|   Distribution                         Average         Max         Min
 RS_GRID|   Planes                                 128.0         128         128
 RS_GRID|   Distribution                         Average         Max         Min
 RS_GRID|   Planes                                 128.0         128         128
 RS_GRID|   Distribution                         Average         Max         Min
 RS_GRID|   Planes                                 108.0         108         108

 RS_GRID| Information for grid number                                          3
 RS_GRID|   Bounds   1            -67      67                Points:         135
 RS_GRID|   Bounds   2            -67      67                Points:         135
 RS_GRID|   Bounds   3            -67      67                Points:         135
 RS_GRID| Real space fully replicated
 RS_GRID| Group size                                                           1

 RS_GRID| Information for grid number                                          4
 RS_GRID|   Bounds   1            -40      39                Points:          80
 RS_GRID|   Bounds   2            -40      39                Points:          80
 RS_GRID|   Bounds   3            -40      39                Points:          80
 RS_GRID| Real space fully replicated
 RS_GRID| Group size                                                           1

  HFX_INFO| Replica ID:                                                        1
  HFX_INFO| FRACTION:                                               0.2500000000
  HFX_INFO| Interaction Potential:                                       COULOMB
  HFX_INFO| EPS_SCHWARZ:                                                 1.0E-10
  HFX_INFO| EPS_SCHWARZ_FORCES                                           1.0E-08
  HFX_INFO| EPS_STORAGE_SCALING:                                         1.0E+00
  HFX_INFO| NBINS:                                                            64
  HFX_INFO| BLOCK_SIZE:                                                        1
  HFX_INFO| Number of periodic shells considered:                           NONE
  HFX_INFO| Number of periodic cells considered:                            NONE


 OVERLAP MATRIX CONDITION NUMBER
 1-Norm Condition Number (Estimate)
   CN : |A|*|A^-1|:  6.751E+000 *  1.445E+002   = 9.754E+002  Log(1-CN):  2.9892
 1-Norm and 2-Norm Condition Numbers using Diagonalization
   CN : |A|*|A^-1|:  6.751E+000 *  2.141E+002   = 1.446E+003  Log(1-CN):  3.1601
   CN : max/min ev:  4.063E+000 /  9.651E-003   = 4.210E+002  Log(2-CN):  2.6242

 Number of electrons:                                                         24
 Number of occupied orbitals:                                                 12
 Number of molecular orbitals:                                                12

 Number of orbital functions:                                                 42
 Number of independent orbital functions:                                     42

 Extrapolation method: initial_guess

 *** WARNING in qs_initial_guess.F:306 :: User requested to restart the    ***
 *** wavefunction from the file named: MoS2-RESTART.wfn. This file does    ***
 *** not exist. Please check the existence of the file or change properly  ***
 *** the value of the keyword WFN_RESTART_FILE_NAME. Calculation continues ***
 *** using ATOMIC GUESS.                                                   ***


 Atomic guess: The first density matrix is obtained in terms of atomic orbitals
               and electronic configurations assigned to each atomic kind

 Guess for atomic kind: O

 Electronic structure
    Total number of core electrons                                          0.00
    Total number of valence electrons                                       8.00
    Total number of electrons                                               8.00
    Multiplicity                                                   not specified
    S      2.00  2.00
    P      4.00


 *******************************************************************************
                  Iteration          Convergence                     Energy [au]
 *******************************************************************************
                          1        0.632508                     -74.379362812282
                          2        0.567317                     -74.387569095717
                          3        0.232827E-02                 -74.435178814890
                          4        0.983529E-04                 -74.435179621081
                          5        0.331865E-06                 -74.435179622494

 Energy components [Hartree]           Total Energy ::          -74.435179622494
                                        Band Energy ::          -40.391821353198
                                     Kinetic Energy ::           74.495376821595
                                   Potential Energy ::         -148.930556444089
                                      Virial (-V/T) ::            1.999191933759
                                        Core Energy ::         -103.154788697085
                                          XC Energy ::           -7.807572585610
                                     Coulomb Energy ::           36.527181660201

 Orbital energies  State     L     Occupation   Energy[a.u.]          Energy[eV]

                       1     0          2.000     -18.733549         -509.765786
                       2     0          2.000      -0.845633          -23.010847

                       1     1          4.000      -0.308364           -8.391022


 Total Electron Density at R=0:                                       298.069974
 Re-scaling the density matrix to get the right number of electrons
                  # Electrons              Trace(P)               Scaling factor
                           24                24.000                        1.000


 SCF WAVEFUNCTION OPTIMIZATION

  ----------------------------------- OT ---------------------------------------
  Minimizer      : CG                  : conjugate gradient
  Preconditioner : FULL_SINGLE_INVERSE : inversion of 
                                         H + eS - 2*(Sc)(c^T*H*c+const)(Sc)^T
  Precond_solver : DEFAULT
  Line search    : 3PNT                : 3 energies
  stepsize       :    0.08000000                  energy_gap     :    0.08000000
  eps_taylor     :   0.10000E-15                  max_taylor     :             4
  ----------------------------------- OT ---------------------------------------

  Step     Update method      Time    Convergence         Total energy    Change
  ------------------------------------------------------------------------------

  HFX_MEM_INFO| Est. max. program size before HFX [MiB]:                     650
  HFX_MEM_INFO| Number of cart. primitive ERI's calculated:              9153109
  HFX_MEM_INFO| Number of sph. ERI's calculated:                          806736
  HFX_MEM_INFO| Number of sph. ERI's stored in-core:                      806736
  HFX_MEM_INFO| Number of sph. ERI's stored on disk:                           0
  HFX_MEM_INFO| Number of sph. ERI's calculated on the fly:                    0
  HFX_MEM_INFO| Total memory consumption ERI's RAM [MiB]:                      6
  HFX_MEM_INFO| Whereof max-vals [MiB]:                                        3
  HFX_MEM_INFO| Total compression factor ERI's RAM:                         1.21
  HFX_MEM_INFO| Total memory consumption ERI's disk [MiB]:                     0
  HFX_MEM_INFO| Total compression factor ERI's disk:                        0.00
  HFX_MEM_INFO| Size of density/Fock matrix [MiB]:                             0
  HFX_MEM_INFO| Size of buffers [MiB]:                                         0
  HFX_MEM_INFO| Est. max. program size after HFX  [MiB]:                    1177

     1 OT CG       0.64E-01    2.5     0.96074268      -214.2072157334 -2.14E+02
     2 OT LS       0.90E-01    1.1                     -217.5375604081
     3 OT LS       0.36E-01    1.0                     -205.5030208896
     4 OT CG       0.29E-01    1.5     0.25151217      -222.8682254666 -8.66E+00
     5 OT LS       0.41E-01    1.0                     -223.5540249445
     6 OT LS       0.61E-01    1.1                     -223.7066647153
     7 OT CG       0.48E-01    1.5     0.08554013      -223.8053749770 -9.37E-01
     8 OT LS       0.68E-01    1.0                     -223.9320413886
     9 OT LS       0.84E-01    1.0                     -223.9537238704
    10 OT CG       0.67E-01    1.5     0.10025372      -223.9591543581 -1.54E-01
    11 OT LS       0.94E-01    1.0                     -224.2393042867
    12 OT LS       0.18E+00    1.0                     -224.3163419809
    13 OT CG       0.15E+00    1.4     0.09125525      -224.4143067603 -4.55E-01
    14 OT LS       0.73E-01    1.0                     -224.2423112251
    15 OT LS       0.56E-01    1.0                     -224.5072971819
    16 OT CG       0.45E-01    1.4     0.05468822      -224.5192679009 -1.05E-01
    17 OT LS       0.62E-01    1.0                     -224.5686529321
    18 OT LS       0.88E-01    1.0                     -224.5790185026
    19 OT CG       0.70E-01    1.4     0.04483060      -224.5845468347 -6.53E-02
    20 OT LS       0.98E-01    1.0                     -224.6438583486
    21 OT LS       0.20E+00    1.0                     -224.6607068648
    22 OT CG       0.16E+00    1.4     0.07615238      -224.6873028610 -1.03E-01
    23 OT LS       0.23E+00    1.0                     -224.7855433744
    24 OT LS       0.11E+00    1.0                     -224.6631030164
    25 OT CG       0.88E-01    1.4     0.04536095      -224.8245463575 -1.37E-01
    26 OT LS       0.12E+00    1.0                     -224.8665695354
    27 OT LS       0.84E-01    1.0                     -224.8576522884
    28 OT CG       0.67E-01    1.4     0.03383454      -224.8666542102 -4.21E-02
    29 OT LS       0.94E-01    1.0                     -224.8906560334
    30 OT LS       0.88E-01    1.0                     -224.8920067604
    31 OT CG       0.71E-01    1.4     0.02743208      -224.8921116871 -2.55E-02
    32 OT LS       0.99E-01    1.1                     -224.9171385007
    33 OT LS       0.40E+00    1.0                     -224.9261062812
    34 OT CG       0.32E+00    1.4     0.02408158      -224.9819769528 -8.99E-02
    35 OT LS       0.16E+00    1.0                     -224.9413214859
    36 OT LS       0.11E+00    1.1                     -224.9970396847
    37 OT CG       0.90E-01    1.4     0.02422540      -225.0002212635 -1.82E-02
    38 OT LS       0.13E+00    1.0                     -225.0145663214
    39 OT LS       0.98E-01    1.0                     -225.0134094795
    40 OT CG       0.78E-01    1.4     0.02350716      -225.0146587814 -1.44E-02
    41 OT LS       0.11E+00    1.0                     -225.0336841740
    42 OT LS       0.30E+00    1.0                     -225.0396666732
    43 OT CG       0.24E+00    1.4     0.03812823      -225.0545983195 -3.99E-02
    44 OT LS       0.12E+00    1.0                     -224.9930095439
    45 OT LS       0.80E-01    1.0                     -225.0720640765
    46 OT CG       0.64E-01    1.4     0.02282152      -225.0789164037 -2.43E-02
    47 OT LS       0.90E-01    1.0                     -225.0904277082
    48 OT LS       0.11E+00    1.0                     -225.0924757391
    49 OT CG       0.91E-01    1.4     0.01321921      -225.0930580358 -1.41E-02
    50 OT LS       0.13E+00    1.0                     -225.0993639341
    51 OT LS       0.22E+00    1.1                     -225.1009564205
    52 OT CG       0.17E+00    1.4     0.01733870      -225.1026049890 -9.55E-03
    53 OT LS       0.24E+00    1.0                     -225.1148278487
    54 OT LS       0.17E+00    1.0                     -225.1121399923
    55 OT CG       0.13E+00    1.4     0.02068479      -225.1148671452 -1.23E-02
    56 OT LS       0.19E+00    1.0                     -225.1301722299
    57 OT LS       0.14E+00    1.0                     -225.1285229621
    58 OT CG       0.11E+00    1.4     0.01098042      -225.1302205687 -1.54E-02
    59 OT LS       0.16E+00    1.0                     -225.1338857322
    60 OT LS       0.12E+00    1.0                     -225.1336197282
    61 OT CG       0.97E-01    1.4     0.01264832      -225.1339109944 -3.69E-03
    62 OT LS       0.14E+00    1.0                     -225.1404295208
    63 OT LS       0.28E+00    1.0                     -225.1422797542
    64 OT CG       0.23E+00    1.4     0.01673598      -225.1451830384 -1.13E-02
    65 OT LS       0.32E+00    1.0                     -225.1599240474
    66 OT LS       0.21E+00    1.0                     -225.1565482378
    67 OT CG       0.17E+00    1.4     0.01199254      -225.1599569400 -1.48E-02
    68 OT LS       0.86E-01    1.0                     -225.1591531768
    69 OT LS       0.81E-01    1.0                     -225.1628605462
    70 OT CG       0.64E-01    1.4     0.00802715      -225.1628739808 -2.92E-03
    71 OT LS       0.90E-01    1.0                     -225.1646541520
    72 OT LS       0.22E+00    1.0                     -225.1651945549
    73 OT CG       0.18E+00    1.4     0.01148857      -225.1664088290 -3.53E-03
    74 OT LS       0.25E+00    1.0                     -225.1742572791
    75 OT LS       0.27E+00    1.0                     -225.1753361838
    76 OT CG       0.22E+00    1.4     0.01070055      -225.1754404731 -9.03E-03
    77 OT LS       0.11E+00    1.0                     -225.1726659506
    78 OT LS       0.90E-01    1.0                     -225.1779232497
    79 OT CG       0.72E-01    1.4     0.00640463      -225.1780476131 -2.61E-03
    80 OT LS       0.10E+00    1.0                     -225.1791959813
    81 OT LS       0.16E+00    1.0                     -225.1794625097
    82 OT CG       0.13E+00    1.4     0.00698130      -225.1796649140 -1.62E-03
    83 OT LS       0.18E+00    1.1                     -225.1822314099
    84 OT LS       0.39E+00    1.0                     -225.1829814263
    85 OT CG       0.31E+00    1.4     0.00899709      -225.1844966869 -4.83E-03
    86 OT LS       0.16E+00    1.0                     -225.1708236466
    87 OT LS       0.78E-01    1.1                     -225.1845240282
    88 OT CG       0.62E-01    1.5     0.00491806      -225.1861689482 -1.67E-03
    89 OT LS       0.87E-01    1.0                     -225.1867692515
    90 OT LS       0.15E+00    1.0                     -225.1869174843
    91 OT CG       0.12E+00    1.5     0.00459509      -225.1870600226 -8.91E-04
    92 OT LS       0.16E+00    1.0                     -225.1880834849
    93 OT LS       0.33E+00    1.0                     -225.1883725687
    94 OT CG       0.27E+00    1.4     0.00658507      -225.1888447466 -1.78E-03
    95 OT LS       0.13E+00    1.1                     -225.1877982555
    96 OT LS       0.11E+00    1.0                     -225.1900848568
    97 OT CG       0.91E-01    1.4     0.00470545      -225.1901179298 -1.27E-03
    98 OT LS       0.13E+00    1.1                     -225.1906554591
    99 OT LS       0.96E-01    1.1                     -225.1905970931
   100 OT CG       0.77E-01    1.5     0.00306255      -225.1906566624 -5.39E-04
   101 OT LS       0.11E+00    1.0                     -225.1909687688
   102 OT LS       0.28E+00    1.1                     -225.1910656665
   103 OT CG       0.22E+00    1.4     0.00463574      -225.1913124632 -6.56E-04
   104 OT LS       0.31E+00    1.0                     -225.1916108637
   105 OT LS       0.13E+00    1.1                     -225.1905840763
   106 OT CG       0.10E+00    1.5     0.00307968      -225.1919924538 -6.80E-04
   107 OT LS       0.14E+00    1.1                     -225.1922682988
   108 OT LS       0.12E+00    1.0                     -225.1922623129
   109 OT CG       0.95E-01    1.4     0.00178769      -225.1922738688 -2.81E-04
   110 OT LS       0.13E+00    1.1                     -225.1923938324
   111 OT LS       0.22E+00    1.0                     -225.1924233483
   112 OT CG       0.18E+00    1.4     0.00281867      -225.1924509845 -1.77E-04
   113 OT LS       0.25E+00    1.1                     -225.1927467986
   114 OT LS       0.15E+00    1.0                     -225.1926402326
   115 OT CG       0.12E+00    1.5     0.00184562      -225.1927539949 -3.03E-04
   116 OT LS       0.17E+00    1.0                     -225.1928343576
   117 OT LS       0.99E-01    1.0                     -225.1927941669
   118 OT CG       0.79E-01    1.4     0.00091063      -225.1928389589 -8.50E-05
   119 OT LS       0.11E+00    1.0                     -225.1928661453
   120 OT LS       0.22E+00    1.0                     -225.1928736675
   121 OT CG       0.18E+00    1.4     0.00128683      -225.1928848988 -4.59E-05
   122 OT LS       0.25E+00    1.0                     -225.1929564431
   123 OT LS       0.17E+00    1.0                     -225.1929432962
   124 OT CG       0.14E+00    1.4     0.00141121      -225.1929564773 -7.16E-05
   125 OT LS       0.19E+00    1.0                     -225.1930189722
   126 OT LS       0.13E+00    1.0                     -225.1930014835
   127 OT CG       0.10E+00    1.4     0.00063127      -225.1930195568 -6.31E-05
   128 OT LS       0.14E+00    1.0                     -225.1930322536
   129 OT LS       0.14E+00    1.0                     -225.1930331294
   130 OT CG       0.11E+00    1.4     0.00064669      -225.1930331513 -1.36E-05
   131 OT LS       0.15E+00    1.0                     -225.1930507473
   132 OT LS       0.24E+00    1.0                     -225.1930548637
   133 OT CG       0.19E+00    1.4     0.00082571      -225.1930580948 -2.49E-05
   134 OT LS       0.27E+00    1.0                     -225.1930790701
   135 OT LS       0.14E+00    1.0                     -225.1930626499
   136 OT CG       0.11E+00    1.4     0.00050176      -225.1930821251 -2.40E-05
   137 OT LS       0.16E+00    1.0                     -225.1930870546
   138 OT LS       0.86E-01    1.1                     -225.1930838541
   139 OT CG       0.68E-01    1.4     0.00033615      -225.1930875572 -5.43E-06
   140 OT LS       0.96E-01    1.0                     -225.1930908792
   141 OT LS       0.23E+00    1.0                     -225.1930918854
   142 OT CG       0.19E+00    1.4     0.00046351      -225.1930941516 -6.59E-06
   143 OT LS       0.26E+00    1.0                     -225.1931076996
   144 OT LS       0.29E+00    1.0                     -225.1931094683
   145 OT CG       0.23E+00    1.4     0.00037801      -225.1931095943 -1.54E-05
   146 OT LS       0.11E+00    1.0                     -225.1931044558
   147 OT LS       0.87E-01    1.0                     -225.1931124132
   148 OT CG       0.70E-01    1.4     0.00027814      -225.1931127204 -3.13E-06
   149 OT LS       0.97E-01    1.0                     -225.1931149117
   150 OT LS       0.18E+00    1.1                     -225.1931154982
   151 OT CG       0.15E+00    1.4     0.00031640      -225.1931162626 -3.54E-06
   152 OT LS       0.20E+00    1.0                     -225.1931218025
   153 OT LS       0.30E+00    1.0                     -225.1931230124
   154 OT CG       0.24E+00    1.4     0.00031551      -225.1931237518 -7.49E-06
   155 OT LS       0.12E+00    1.1                     -225.1931211271
   156 OT LS       0.97E-01    1.0                     -225.1931260726
   157 OT CG       0.78E-01    1.4     0.00019440      -225.1931261914 -2.44E-06
   158 OT LS       0.11E+00    1.0                     -225.1931272210
   159 OT LS       0.13E+00    1.0                     -225.1931273791
   160 OT CG       0.10E+00    1.4     0.00019474      -225.1931274044 -1.21E-06
   161 OT LS       0.14E+00    1.0                     -225.1931290107
   162 OT LS       0.29E+00    1.0                     -225.1931294620
   163 OT CG       0.23E+00    1.4     0.00024201      -225.1931301828 -2.78E-06
   164 OT LS       0.12E+00    1.0                     -225.1931292565
   165 OT LS       0.10E+00    1.0                     -225.1931316684
   166 OT CG       0.82E-01    1.4     0.00014552      -225.1931316959 -1.51E-06
   167 OT LS       0.11E+00    1.0                     -225.1931322881
   168 OT LS       0.13E+00    1.0                     -225.1931323667
   169 OT CG       0.10E+00    1.4     0.00011245      -225.1931323729 -6.77E-07
   170 OT LS       0.14E+00    1.1                     -225.1931329279
   171 OT LS       0.36E+00    1.0                     -225.1931330985
   172 OT CG       0.29E+00    1.4     0.00019605      -225.1931335129 -1.14E-06
   173 OT LS       0.14E+00    1.0                     -225.1931311586
   174 OT LS       0.10E+00    1.0                     -225.1931343123
   175 OT CG       0.80E-01    1.4     0.00010860      -225.1931344871 -9.74E-07
   176 OT LS       0.11E+00    1.1                     -225.1931348093
   177 OT LS       0.12E+00    1.0                     -225.1931348509
   178 OT CG       0.99E-01    1.4     0.00007207      -225.1931348537 -3.67E-07
   179 OT LS       0.14E+00    1.0                     -225.1931350749
   180 OT LS       0.34E+00    1.1                     -225.1931351427
   181 OT CG       0.28E+00    1.4     0.00011686      -225.1931353046 -4.51E-07
   182 OT LS       0.14E+00    1.0                     -225.1931349049
   183 OT LS       0.11E+00    1.0                     -225.1931356791
   184 OT CG       0.91E-01    1.4     0.00007887      -225.1931356965 -3.92E-07
   185 OT LS       0.13E+00    1.0                     -225.1931358422
   186 OT LS       0.93E-01    1.0                     -225.1931358223
   187 OT CG       0.74E-01    1.5     0.00003935      -225.1931358423 -1.46E-07
   188 OT LS       0.10E+00    1.0                     -225.1931358925
   189 OT LS       0.27E+00    1.0                     -225.1931359081
   190 OT CG       0.22E+00    1.4     0.00006072      -225.1931359492 -1.07E-07
   191 OT LS       0.31E+00    1.0                     -225.1931360814
   192 OT LS       0.16E+00    1.0                     -225.1931359801
   193 OT CG       0.13E+00    1.5     0.00005017      -225.1931361000 -1.51E-07
   194 OT LS       0.18E+00    1.1                     -225.1931361584
   195 OT LS       0.10E+00    1.0                     -225.1931361222
   196 OT CG       0.80E-01    1.4     0.00002653      -225.1931361638 -6.38E-08
   197 OT LS       0.11E+00    1.1                     -225.1931361840
   198 OT LS       0.14E+00    1.0                     -225.1931361874
   199 OT CG       0.11E+00    1.4     0.00002983      -225.1931361882 -2.44E-08
   200 OT LS       0.15E+00    1.1                     -225.1931362268
   201 OT LS       0.25E+00    1.0                     -225.1931362363
   202 OT CG       0.20E+00    1.4     0.00003707      -225.1931362451 -5.69E-08
   203 OT LS       0.28E+00    1.0                     -225.1931362882
   204 OT LS       0.15E+00    1.1                     -225.1931362508
   205 OT CG       0.12E+00    1.4     0.00001788      -225.1931362958 -5.07E-08
   206 OT LS       0.16E+00    1.0                     -225.1931363050
   207 OT LS       0.11E+00    1.0                     -225.1931363032
   208 OT CG       0.91E-01    1.4     0.00001743      -225.1931363050 -9.17E-09
   209 OT LS       0.13E+00    1.0                     -225.1931363157
   210 OT LS       0.20E+00    1.1                     -225.1931363182
   211 OT CG       0.16E+00    1.5     0.00002125      -225.1931363201 -1.51E-08
   212 OT LS       0.22E+00    1.0                     -225.1931363428
   213 OT LS       0.22E+00    1.0                     -225.1931363446
   214 OT CG       0.17E+00    1.4     0.00001364      -225.1931363446 -2.45E-08
   215 OT LS       0.24E+00    1.0                     -225.1931363467
   216 OT LS       0.99E-01    1.0                     -225.1931363396
   217 OT CG       0.79E-01    1.4     0.00000979      -225.1931363492 -4.64E-09
   218 OT LS       0.11E+00    1.0                     -225.1931363522
   219 OT LS       0.18E+00    1.0                     -225.1931363530
   220 OT CG       0.15E+00    1.5     0.00001293      -225.1931363537 -4.44E-09
   221 OT LS       0.21E+00    1.0                     -225.1931363620
   222 OT LS       0.23E+00    1.0                     -225.1931363631
   223 OT CG       0.18E+00    1.4     0.00001175      -225.1931363632 -9.56E-09
   224 OT LS       0.25E+00    1.1                     -225.1931363636
   225 OT LS       0.94E-01    1.0                     -225.1931363570
   226 OT CG       0.75E-01    1.4     0.00000709      -225.1931363665 -3.26E-09
   227 OT LS       0.11E+00    1.0                     -225.1931363679
   228 OT LS       0.16E+00    1.0                     -225.1931363683
   229 OT CG       0.13E+00    1.4     0.00000736      -225.1931363685 -2.04E-09
   230 OT LS       0.18E+00    1.0                     -225.1931363713
   231 OT LS       0.30E+00    1.0                     -225.1931363719
   232 OT CG       0.24E+00    1.4     0.00000939      -225.1931363726 -4.06E-09
   233 OT LS       0.12E+00    1.1                     -225.1931363692
   234 OT LS       0.90E-01    1.0                     -225.1931363744
   235 OT CG       0.72E-01    1.5     0.00000549      -225.1931363746 -2.00E-09
   236 OT LS       0.10E+00    1.0                     -225.1931363754
   237 OT LS       0.13E+00    1.0                     -225.1931363755
   238 OT CG       0.10E+00    1.4     0.00000486      -225.1931363756 -9.93E-10
   239 OT LS       0.15E+00    1.1                     -225.1931363767
   240 OT LS       0.39E+00    1.0                     -225.1931363770
   241 OT CG       0.31E+00    1.4     0.00000634      -225.1931363779 -2.32E-09
   242 OT LS       0.16E+00    1.0                     -225.1931363749
   243 OT LS       0.11E+00    1.0                     -225.1931363787
   244 OT CG       0.85E-01    1.5     0.00000440      -225.1931363790 -1.08E-09
   245 OT LS       0.12E+00    1.0                     -225.1931363794
   246 OT LS       0.95E-01    1.0                     -225.1931363794
   247 OT CG       0.76E-01    1.4     0.00000284      -225.1931363794 -4.62E-10
   248 OT LS       0.11E+00    1.0                     -225.1931363797
   249 OT LS       0.42E+00    1.0                     -225.1931363798
   250 OT CG       0.34E+00    1.4     0.00000506      -225.1931363803 -8.52E-10
   251 OT LS       0.17E+00    1.0                     -225.1931363788
   252 OT LS       0.13E+00    1.0                     -225.1931363810
   253 OT CG       0.10E+00    1.4     0.00000323      -225.1931363811 -8.06E-10
   254 OT LS       0.14E+00    1.0                     -225.1931363813
   255 OT LS       0.98E-01    1.1                     -225.1931363813
   256 OT CG       0.78E-01    1.4     0.00000193      -225.1931363814 -2.57E-10
   257 OT LS       0.11E+00    1.0                     -225.1931363815
   258 OT LS       0.19E+00    1.0                     -225.1931363815
   259 OT CG       0.15E+00    1.4     0.00000261      -225.1931363815 -1.78E-10
   260 OT LS       0.21E+00    1.0                     -225.1931363818
   261 OT LS       0.19E+00    1.1                     -225.1931363819
   262 OT CG       0.15E+00    1.4     0.00000251      -225.1931363819 -3.29E-10
   263 OT LS       0.22E+00    1.1                     -225.1931363820
   264 OT LS       0.11E+00    1.0                     -225.1931363819
   265 OT CG       0.87E-01    1.5     0.00000102      -225.1931363820 -1.72E-10
   266 OT LS       0.12E+00    1.0                     -225.1931363821
   267 OT LS       0.20E+00    1.0                     -225.1931363821
   268 OT CG       0.16E+00    1.4     0.00000142      -225.1931363821 -5.14E-11
   269 OT LS       0.22E+00    1.1                     -225.1931363822
   270 OT LS       0.17E+00    1.0                     -225.1931363822
   271 OT CG       0.13E+00    1.4     0.00000149      -225.1931363822 -8.33E-11
   272 OT LS       0.19E+00    1.0                     -225.1931363822
   273 OT LS       0.14E+00    1.0                     -225.1931363822
   274 OT CG       0.11E+00    1.4     0.00000063      -225.1931363822 -7.88E-11

  *** SCF run converged in   274 steps ***


  Electronic density on regular grids:        -18.5380592565        5.4619407435
  Core density on regular grids:               24.0000000000        0.0000000000
  Hard and soft densities (Lebedev):          -26.9637334074      -21.5017916613
  Total Rho_soft + Rho1_hard - Rho1_soft      -24.0000010027
  Total charge density (r-space):              -0.0000010027
  Total Rho_soft + Rho0_soft (g-space):        -0.0000011789

  Overlap energy of the core charge distribution:               0.00000000040286
  Self energy of the core charge distribution:               -218.73036068360560
  Core Hamiltonian energy:                                    -19.81877059750648
  Hartree energy:                                              39.51780863230909
  Exchange-correlation energy:                                 -8.29562596116243
  Hartree-Fock Exchange energy:                                -6.08384416087146

  GAPW| Exc from hard and soft atomic rho1:                   -10.90217551863997
  GAPW| local Eh = 1 center integrals:                         -0.88016809316870

  Total energy:                                              -225.19313638224267

  outer SCF iter =    1 RMS gradient =   0.63E-06 energy =       -225.1931363822
  outer SCF loop converged in   1 iterations or  274 steps


 !-----------------------------------------------------------------------------!
                     Mulliken Population Analysis

 #  Atom  Element  Kind  Atomic population                           Net charge
       1     O        1          7.794934                              0.205066
       2     O        1          8.102533                             -0.102533
       3     O        1          8.102533                             -0.102533
 # Total charge                             24.000000                  0.000000

 !-----------------------------------------------------------------------------!

 !-----------------------------------------------------------------------------!
                           Hirshfeld Charges

  #Atom  Element  Kind  Ref Charge     Population                    Net charge
      1       O      1       8.000          7.745                         0.255
      2       O      1       8.000          8.127                        -0.127
      3       O      1       8.000          8.127                        -0.127

  Total Charge                                                            0.000
 !-----------------------------------------------------------------------------!

 *******************************************************************************
 **                                                                           **
 **         ######## #######   #######   ######## #######  ########           **
 **            ##    ##     ## ##     ## ##       ##   ##     ##              **
 **            ##    ##     ## ##     ## ######   #######     ##              **
 **            ##    ##     ## ##     ## ##       ##          ##              **
 **            ##    #######   #######   ##       ##          ##              **
 **                                                                           **
 *******************************************************************************
 KERNEL|                                                                    FULL
 FUNCTIONAL| PBE:
 FUNCTIONAL| J.P.Perdew, K.Burke, M.Ernzerhof, Phys. Rev. Letter, vol. 77, n 18,
 FUNCTIONAL|  pp. 3865-3868, (1996)sx=0.750sc=1.000{spin unpolarized}           
 KERNEL|                                                          Exact Exchange
 KERNEL| Spin symmetry of excitations                                    Singlet
 TDDFPT| Number of states calculated                                          20
 TDDFPT| Number of Davidson iterations                                       100
 TDDFPT| Davidson iteration convergence                                0.367E-07
 TDDFPT| Max. number of Krylov space vectors                                5000
 TDDFPT| Molecular Orbitals:        Spin       AOs       Occ      Virt     Total
 TDDFPT|                               1        42        12        30        42
 
 -------------------------------------------------------------------------------
 -                            TDDFPT Initial Guess                             -
 -------------------------------------------------------------------------------
          State         Occupied      ->      Virtual          Excitation
          number         orbital              orbital          energy (eV)
 -------------------------------------------------------------------------------
             1               12                   13              4.62490
             2               11                   13              4.83826
             3               10                   13              5.19823
             4                9                   13             11.61406
             5                8                   13             11.64521
             6                7                   13             11.86791
             7               12                   14             11.96680
             8               11                   14             12.18016
             9               10                   14             12.54013
            10               12                   15             14.31674
            11               11                   15             14.53010
            12               10                   15             14.89007
            13                6                   13             17.10542
            14                9                   14             18.95596
            15                8                   14             18.98712
            16                7                   14             19.20981
            17                9                   15             21.30590
            18                8                   15             21.33706
            19                7                   15             21.55975
            20                6                   14             24.44733

      Number of active states:                                        360
 -------------------------------------------------------------------------------
 
 -------------------------------------------------------------------------------
 -                      TDDFPT WAVEFUNCTION OPTIMIZATION                       -
 -------------------------------------------------------------------------------

          Step            Time         Convergence           Conv. states
 -------------------------------------------------------------------------------

    State    Exc. energy (eV)      Convergence (eV)
        1       2.1240695            -2.5008E+00
        2       2.2340624            -2.6042E+00
        3       6.9912910             1.7931E+00
        4       9.0973842            -2.5167E+00
        5       9.4325447            -2.2127E+00
        6       9.4926930            -2.3752E+00
        7      10.0301391            -1.9367E+00
        8      10.2352681            -1.9449E+00
        9      11.9785464            -5.6158E-01
       10      12.2897369            -2.0270E+00
       11      12.4126945            -2.1174E+00
       12      14.5930552            -2.9701E-01
       13      16.3661529            -7.3927E-01
       14      17.1984847            -1.7575E+00
       15      17.3774595            -1.6097E+00
       16      18.4754815            -7.3433E-01
       17      18.5942626            -2.7116E+00
       18      22.6287599             1.2917E+00
       19      23.1588443             1.5991E+00
       20      28.4487804             4.0015E+00

             1            29.5          1.4705E-01                      0

    State    Exc. energy (eV)      Convergence (eV)
        1       2.0864907            -3.7579E-02
        2       2.2145347            -1.9528E-02
        3       6.5168847            -4.7441E-01
        4       9.0376992            -5.9685E-02
        5       9.3595155            -7.3029E-02
        6       9.3666976            -1.2600E-01
        7       9.9203035            -1.0984E-01
        8      10.0395614            -1.9571E-01
        9      11.5762107            -4.0234E-01
       10      12.1188509            -1.7089E-01
       11      12.3639334            -4.8761E-02
       12      13.9482507            -6.4480E-01
       13      16.1423889            -2.2376E-01
       14      16.8823292            -3.1616E-01
       15      17.2022190            -1.7524E-01
       16      18.3478878            -1.2759E-01
       17      18.4185836            -1.7568E-01
       18      19.7631689            -2.8656E+00
       19      22.0367866            -1.1221E+00
       20      23.8131295            -4.6357E+00

             2            29.6          1.7036E-01                      0

    State    Exc. energy (eV)      Convergence (eV)
        1       2.0863786            -1.1209E-04
        2       2.2144990            -3.5698E-05
        3       6.5149007            -1.9840E-03
        4       9.0374030            -2.9616E-04
        5       9.3587385            -7.7708E-04
        6       9.3656368            -1.0608E-03
        7       9.9197245            -5.7901E-04
        8      10.0380753            -1.4861E-03
        9      11.5732569            -2.9538E-03
       10      12.1183332            -5.1768E-04
       11      12.3637092            -2.2417E-04
       12      13.9413145            -6.9362E-03
       13      16.1417199            -6.6906E-04
       14      16.8815927            -7.3657E-04
       15      17.1992763            -2.9427E-03
       16      18.3437160            -4.1718E-03
       17      18.4176543            -9.2926E-04
       18      19.7238898            -3.9279E-02
       19      22.0099721            -2.6814E-02
       20      23.7005935            -1.1254E-01

             3            29.5          4.1356E-03                      0

    State    Exc. energy (eV)      Convergence (eV)
        1       2.0863786            -2.6503E-08
        2       2.2144990            -9.2149E-09
        3       6.5148993            -1.4424E-06
        4       9.0374029            -1.3403E-07
        5       9.3587370            -1.4442E-06
        6       9.3656361            -6.7995E-07
        7       9.9197241            -3.9882E-07
[...]
 pw_poisson_solve                   394  8.6    5.145    6.250  185.886  186.142
 fft_wrap_pw1pw2_250               4433 11.7    7.706    9.087  179.177  183.936
 qs_energies_properties               1  3.0    0.000    0.000  178.260  178.260
 tddfpt                               1  4.0    0.000    0.000  178.260  178.260
 tddfpt_energies                      1  5.0    0.000    0.001  178.226  178.227
 tddfpt_davidson_solver               1  6.0    0.001    0.002  177.139  177.139
 tddfpt_compute_Aop_evects            6  7.0    0.000    0.000  175.991  175.991
 fhxc_kernel                          6  8.0    0.006    0.007  163.114  163.114
 fft3d_ps                          6257 12.5   68.287   86.070  153.086  158.821
 ps_wavelet_solve                   394  9.6   88.366  101.278  113.499  115.117
 qs_rho_update_rho_low              396  6.2    0.004    0.005   92.897   92.900
 calculate_rho_elec                 396  7.2    1.926    2.285   92.734   92.738
 mp_alltoall_d54                    394 10.6   14.549   87.195   14.549   87.195
 xc_pw_derive                      1821 11.0    0.021    0.026   80.872   81.167
 mp_alltoall_z22v                  6257 14.5   71.129   77.249   71.129   77.249
 tddfpt_apply_coulomb               120  9.0    0.003    0.003   67.869   68.070
 density_rs2pw                      396  8.2    0.024    0.029   62.988   64.278
 qs_vxc_create                      274  8.0    0.003    0.003   58.391   58.391
 yz_to_x                           2826 13.3    4.631    5.555   41.019   45.228
 x_to_yz                           2823 13.7    8.343    9.703   43.038   44.648
 tddfpt_apply_xc_analytic           120  9.0    0.170    0.222   40.160   40.722
 xc_rho_set_and_dset_create         275 10.0    0.671    0.839   38.180   40.380
 xc_pw_divergence                   212 10.6    0.009    0.011   38.580   38.961
 transfer_rs2pw                    1980  9.4    0.059    0.078   35.735   36.504
 prepare_gapw_den                   395  8.3    0.004    0.005   32.085   32.479
 put_rho0_on_grid                   395  9.3    1.947    2.349   31.361   31.755
 mp_alltoall_d11v                 13864 11.9   21.499   31.122   21.499   31.122
 xc_vxc_pw_create                    92  9.0    0.608    0.693   30.987   30.987
 transfer_pw2rs                    1243 10.6    0.019    0.022   28.605   29.203
 integrate_v_rspace                 212  9.0    0.005    0.006   28.297   28.389
 potential_pw2rs                    212 10.0    0.073    0.080   27.444   27.538
 grid_collocate_task_list           396  8.2   26.289   27.422   26.289   27.422
 xc_exc_calc                        182  9.0    0.883    1.048   27.401   27.402
 mp_waitany                       60210 11.9   21.909   24.271   21.909   24.271
 integrate_four_center              514  9.5   10.139   22.515   23.784   23.994
 xc_calc_2nd_deriv_analytical       360 10.1    1.429    1.502   23.835   23.901
 mp_sync                           2899 11.4   12.524   22.505   12.524   22.505
 transfer_rs2pw_250                 792 10.8    8.944    9.340   20.136   20.876
 transfer_pw2rs_250                 607 11.1    6.594    7.058   18.650   19.127
 mp_alltoall_d45                    395 10.6    9.694   16.717    9.694   16.717
 integrate_vhg0_rspace              394  8.6    0.079    0.120   16.395   16.463
 hfx_ks_matrix                      274  8.0    0.009    0.010   12.883   13.047
 sum_up_and_integrate                92  8.0    0.001    0.001   12.351   12.393
 tddfpt_apply_hfx                     6  8.0    0.002    0.003   12.381   12.381
 pw_scatter_p                      3035 12.8   10.900   11.313   10.900   11.313
 tddft_hfx_matrix                   240  9.0    0.006    0.007   10.920   10.985
 pw_derive                         3003 11.5    8.889    9.519    8.889    9.519
 pw_gather_p                       3222 12.2    8.749    9.513    8.749    9.513
 cp2k_distribution_to_z_slices      394  9.6    3.776    4.101    8.873    9.456
 mp_sum_d                          7713 10.0    7.133    9.115    7.133    9.115
 transfer_rs2pw_30                  396 10.2    3.727    3.886    8.706    8.869
 qs_scf_new_mos                     274  5.0    0.001    0.001    6.844    6.855
 qs_scf_loop_do_ot                  274  6.0    0.001    0.002    6.843    6.853
 fft_wrap_pw1pw2_90                 608 10.8    0.211    0.295    5.285    6.760
 dbcsr_multiply_generic            4308  9.9    0.173    0.185    6.501    6.560
 pw_copy                           4765 10.7    6.113    6.479    6.113    6.479
 ot_scf_mini                        274  7.0    0.004    0.004    6.409    6.418
 mp_sendrecv_dv                   75240 11.2    6.091    6.381    6.091    6.381
 mp_waitall_1                    559726 13.4    4.179    6.275    4.179    6.275
 transfer_pw2rs_30                  212 12.0    3.599    4.058    5.967    6.239
 pw_poisson_set                     395  9.6    0.014    0.016    6.107    6.195
 rs_grid_zero                      1609 11.2    5.256    5.542    5.256    5.542
 transfer_rs2pw_90                  396 10.2    1.308    1.481    5.034    5.250
 pw_integral_ab_c1d_c1d_gs          394  9.6    2.879    2.905    3.435    3.965
 pw_copy_to_array                  3222 12.2    3.174    3.646    3.174    3.646
 multiply_cannon                   4308 10.9    0.388    0.395    3.384    3.533
 transfer_pw2rs_90                  212 12.0    0.751    0.865    2.916    3.288
 cp_dbcsr_sm_fm_multiply            769  8.5    0.014    0.016    3.133    3.208
 pw_axpy                           3158  9.8    2.936    3.169    2.936    3.169
 qs_ot_get_p                        275  8.0    0.002    0.002    3.105    3.115
 mp_isend_dv                     238276 13.4    1.794    3.051    1.794    3.051
 pw_copy_from_array                3035 12.8    2.141    2.719    2.141    2.719
 multiply_cannon_loop              4308 11.9    0.644    0.673    2.495    2.654
 init_scf_loop                        1  4.0    0.000    0.000    2.504    2.504
 xc_functional_eval                1063 10.9    0.002    0.005    0.805    2.492
 pbe_lda_eval                      1063 11.9    0.803    2.488    0.803    2.488
 qs_ot_p2m_diag                     274  9.0    0.006    0.011    2.375    2.386
 pw_zero                           3028 10.4    2.166    2.351    2.166    2.351
 dbcsr_complete_redistribute       2979 10.8    0.104    0.147    2.226    2.299
 mp_isendrecv_dv                 137940 11.9    1.108    2.222    1.108    2.222
 ot_mini                            274  8.0    0.001    0.001    2.062    2.078
 make_m2s                          8616 10.9    0.141    0.154    1.907    1.990
 mp_irecv_dm3                     12042 11.9    1.146    1.965    1.146    1.965
 qs_ot_get_derivative                92  9.0    0.001    0.001    1.894    1.895
 transfer_rs2pw_10                  396 10.2    0.686    0.745    1.798    1.860
 mp_sum_dm                         3584  8.7    1.426    1.793    1.426    1.793
 mp_isend_dm3                     12042 11.9    1.058    1.761    1.058    1.761
 copy_dbcsr_to_fm                  1085  9.8    0.014    0.015    1.676    1.690
 mp_max_i                           847  5.8    1.152    1.529    1.152    1.529
 cp_dbcsr_syevd                     274 10.0    0.015    0.016    1.512    1.515
 qs_ot_get_derivative_diag           91 10.0    0.002    0.002    1.460    1.462
 gaVxcgb_GC                         212  9.6    0.046    1.461    0.046    1.461
 calculate_xc_2nd_deriv_atom        120  9.0    0.026    0.453    0.066    1.410
 make_images                       8616 11.9    0.338    0.344    1.375    1.406
 copy_fm_to_dbcsr                  1892  9.8    0.008    0.009    1.321    1.398
 calculate_vxc_atom                 274  8.0    0.046    0.552    1.349    1.350
 fft_wrap_pw1pw2_30                 608 10.8    0.038    0.045    1.118    1.255
 transfer_pw2rs_10                  212 12.0    0.387    0.423    1.054    1.184
 cp_fm_syevd                        322 10.5    0.002    0.002    1.162    1.165
 Vh_1c_gg_integrals                 394  8.6    0.021    0.155    0.899    1.141
 scale_and_distribute               788 10.6    0.984    1.108    0.984    1.108
 cp_dbcsr_sm_fm_multiply_core       769  9.5    0.002    0.002    1.066    1.086
 mp_alltoall_i11v                 10296 11.8    0.943    0.945    0.943    0.945
 cp_fm_redistribute_end             322 11.5    0.523    0.898    0.530    0.907
 rs_gather_matrices                 212 10.0    0.002    0.007    0.786    0.883
 qs_ot_get_orbitals                 274  8.0    0.001    0.001    0.840    0.848
 pw_poisson_rebuild                 394  9.6    0.000    0.001    0.771    0.786
 ps_wavelet_create                    1 10.0    0.000    0.000    0.771    0.786
 RS_z_slice_distribution              1 11.0    0.677    0.723    0.771    0.786
 grid_integrate_task_list           212 10.0    0.061    0.755    0.061    0.755
 cp_fm_syevd_base                   322 11.5    0.372    0.746    0.372    0.746
 tddfpt_orthonormalize_psi1_psi       7  6.9    0.011    0.011    0.687    0.687
 calculate_rho_atom                 395  9.3    0.336    0.667    0.336    0.668
 dbcsr_desymmetrize_deep           1086 10.8    0.020    0.021    0.649    0.659
 multiply_cannon_metrocomm4       94776 12.9    0.281    0.303    0.540    0.601
 create_qs_kind_set                   1  2.0    0.000    0.000    0.577    0.577
 read_qs_kind                         1  3.0    0.320    0.325    0.577    0.577
 mp_sum_dv                        17714 11.1    0.537    0.564    0.537    0.564
 mp_sum_l                         19693 10.7    0.511    0.553    0.511    0.553
 cp_dbcsr_plus_fm_fm_t              121  9.0    0.002    0.002    0.540    0.545
 multiply_cannon_metrocomm2       90468 12.9    0.268    0.283    0.492    0.542
 make_images_sizes                 8616 12.9    0.009    0.010    0.512    0.537
 mp_alltoall_i44                   8616 13.9    0.503    0.528    0.503    0.528
 multiply_cannon_metrocomm3      103392 12.9    0.163    0.171    0.402    0.518
 prepare_dr1dr                      360 11.1    0.426    0.500    0.426    0.500
 tddfpt_apply_energy_diff             6  8.0    0.001    0.001    0.496    0.496
 tddfpt_print_nto_analysis            1  6.0    0.002    0.003    0.464    0.464
 fft_wrap_pw1pw2_10                 608 10.8    0.010    0.011    0.436    0.460
 integrate_four_center_getP         514 10.5    0.074    0.078    0.436    0.439
 calculate_dm_sparse                275  7.0    0.001    0.001    0.435    0.439
 integrate_four_center_dist_KS      514 10.5    0.075    0.079    0.430    0.434
 tddfpt_compute_residual_vects        5  7.0    0.001    0.001    0.421    0.421
 mp_alltoall_i22                   4156 11.8    0.336    0.416    0.336    0.416
 mp_rank_compare                   6257 13.5    0.375    0.402    0.375    0.402
 dbcsr_make_images_dense           6336 11.9    0.096    0.101    0.284    0.401
 hybrid_alltoall_any               9702 13.6    0.074    0.082    0.369    0.395
 integrate_four_center_main         514 10.5    0.069    0.208    0.091    0.351
 multiply_cannon_metrocomm1      103392 12.9    0.114    0.117    0.269    0.346
 parallel_gemm_fm                  1036  8.3    0.001    0.001    0.336    0.342
 dbcsr_create_new                 87886 12.4    0.243    0.253    0.329    0.342
 parallel_gemm_fm_gemm             1036  9.3    0.001    0.001    0.335    0.341
 cp_fm_gemm                        1036 10.3    0.333    0.340    0.333    0.340
 init_scf_run                         1  3.0    0.000    0.000    0.322    0.322
 scf_env_initial_rho_setup            1  4.0    0.000    0.000    0.322    0.322
 tddfpt_construct_ground_state_       1  6.0    0.000    0.000    0.316    0.317
 pw_scale                           608  9.5    0.254    0.299    0.254    0.299
 arnoldi_extremal                   275  9.0    0.005    0.005    0.290    0.298
 arnoldi_normal_ev                  276 10.0    0.005    0.005    0.287    0.294
 dbcsr_make_dense_low             18491 12.8    0.092    0.095    0.138    0.292
 dbcsr_finalize                    9812 11.3    0.047    0.062    0.226    0.288
 integrate_four_center_bin        40917 11.5    0.022    0.277    0.022    0.277
 mp_alltoall_z11v                   608 13.8    0.251    0.277    0.251    0.277
 mp_allgather_i34                  4308 11.9    0.246    0.269    0.246    0.269
 make_images_data                  8616 12.9    0.082    0.112    0.179    0.263
 cp_fm_redistribute_start           322 11.5    0.205    0.213    0.258    0.261
 parser_read_line                 67638  4.0    0.024    0.025    0.257    0.260
 qs_init_subsys                       1  2.0    0.003    0.004    0.240    0.241
 parser_read_line_low                74  5.0    0.024    0.107    0.233    0.236
 qs_env_setup                         1  3.0    0.000    0.000    0.234    0.234
 qs_env_rebuild_pw_env                2  3.5    0.000    0.000    0.233    0.233
 pw_env_rebuild                       1  5.0    0.001    0.001    0.232    0.233
 pw_grid_setup                        4  6.0    0.000    0.000    0.226    0.227
 pw_grid_setup_internal               4  7.0    0.006    0.007    0.226    0.226
 mp_irecv_dv                     235980 13.4    0.171    0.214    0.171    0.214
 broadcast_input_information         74  6.0    0.056    0.060    0.209    0.213
 dbcsr_special_finalize           21540 12.9    0.053    0.055    0.170    0.211
 build_subspace                     276 11.0    0.010    0.011    0.203    0.206
 create_kernel_env                    1  6.0    0.000    0.000    0.193    0.205
 xc_prep_2nd_deriv                    1  7.0    0.000    0.000    0.193    0.205
 multiply_cannon_multrec         103392 12.9    0.129    0.176    0.147    0.194
 mp_cart_sub                       2173 11.8    0.189    0.191    0.189    0.191
 cp_fm_geeig                         20  7.0    0.001    0.001    0.177    0.177
 powell_optimize                  67030 11.0    0.166    0.176    0.166    0.176
 xz_to_yz                           396 12.2    0.014    0.016    0.159    0.169
 mp_isend_iv                     203246 13.9    0.153    0.169    0.153    0.169
 dbcsr_merge_all                   8594 12.2    0.101    0.124    0.127    0.162
 calculate_rho_atom_coeff           396  7.2    0.020    0.055    0.159    0.160
 dbcsr_matrix_vector_mult          2208 12.0    0.020    0.022    0.106    0.159
 pw_grid_sort                         4  8.0    0.107    0.109    0.156    0.159
 cp_fm_trace_a1b1t1_aa             7470  8.0    0.035    0.037    0.155    0.158
 ot_new_cg_direction                 92  9.0    0.001    0.001    0.157    0.157
 dbcsr_iterator_start             68353 12.5    0.066    0.128    0.082    0.156
 mp_cart_create                    1484 11.1    0.139    0.147    0.141    0.149
 make_dense_data                  18491 13.8    0.007    0.062    0.008    0.147
 vxc_of_r_new                       548  9.0    0.000    0.011    0.005    0.146
 dbcsr_destroy                    85641 11.5    0.104    0.108    0.139    0.145
 apply_preconditioner_dbcsr          93 10.0    0.000    0.000    0.139    0.143
 apply_single                        93 11.0    0.000    0.000    0.139    0.143
 rs_grid_create                     400  9.6    0.002    0.003    0.029    0.140
 calc_screening_functions             1 10.0    0.051    0.052    0.133    0.139
 offload_create_buffer              402 10.5    0.027    0.138    0.027    0.138
 yz_to_xz                           212 14.0    0.012    0.013    0.118    0.138
 dbcsr_data_new                  236521 13.0    0.098    0.136    0.098    0.136
 calc_pair_dist_radii                 1 10.0    0.037    0.038    0.121    0.126
 dbcsr_data_release              398034 13.2    0.100    0.116    0.100    0.116
 rs_scatter_matrices                396  8.2    0.003    0.006    0.108    0.110
 xc_2nd_deriv_of_r                  240 10.0    0.001    0.019    0.003    0.110
 dbcsr_make_dense                  2651 11.1    0.011    0.012    0.056    0.102
 setup_buffer_matrices             8616 11.9    0.032    0.033    0.098    0.101
 dbcsr_iterator_stop              68353 12.5    0.049    0.085    0.061    0.100
 mp_irecv_iv                     204016 13.9    0.088    0.098    0.088    0.098
 dbcsr_work_create                31311 12.5    0.055    0.059    0.079    0.095
 mp_bcast_i_src                     296  7.0    0.084    0.094    0.084    0.094
 dbcsr_new_transposed              1979 10.8    0.011    0.012    0.089    0.093
 mp_sum_b                          6337 10.9    0.087    0.089    0.087    0.089
 qs_energies_init_hamiltonians        1  3.0    0.000    0.000    0.086    0.086
 update_ks_atom                     394  8.3    0.016    0.041    0.059    0.082
 build_core_hamiltonian_matrix        1  4.0    0.000    0.000    0.079    0.079
 overlap_condnum                      1  5.0    0.000    0.000    0.077    0.078
 mp_bcast_am_src                     74  7.0    0.063    0.072    0.068    0.078
 dbcsr_work_destroy_all           31311 13.4    0.051    0.057    0.068    0.077
 dbcsr_make_undense                2651 11.1    0.017    0.033    0.033    0.075
 dbcsr_add_d                       1124  9.4    0.002    0.002    0.009    0.074
 dbcsr_add_anytype                 1124 10.4    0.002    0.011    0.007    0.072
 dbcsr_merge_single_wm             8285 13.5    0.039    0.049    0.046    0.072
 dbcsr_col_vec_to_rep_row          2550 12.5    0.018    0.019    0.039    0.071
 xc_pw_smooth                        92 10.0    0.000    0.000    0.048    0.069
 scf_post_calculation_gpw             1  3.0    0.000    0.000    0.066    0.066
 write_available_results              1  4.0    0.000    0.000    0.066    0.066
 write_mo_free_results                1  5.0    0.006    0.008    0.066    0.066
 quick_finalize                   14432 14.0    0.030    0.038    0.051    0.066
 copy_fm_to_dbcsr_bc               1892 10.8    0.020    0.022    0.059    0.064
 dbcsr_mm_multrec_init             4308 11.9    0.008    0.010    0.057    0.062
 Gram_Schmidt_ortho                2001 11.9    0.002    0.003    0.047    0.059
 dbcsr_redistribute                  91 12.0    0.003    0.003    0.056    0.058
 tddfpt_orthogonalize_psi1_psi0       7  6.9    0.000    0.000    0.054    0.058
 tddfpt_compute_ritz_vects            6  7.0    0.003    0.004    0.057    0.057
 dbcsr_copy                        6978 10.0    0.023    0.025    0.052    0.057
 mp_cart_rank                    151404 10.1    0.045    0.055    0.045    0.055
 mp_bcast_dm                       2641  9.6    0.050    0.055    0.050    0.055
 arnoldi_init                       276 11.0    0.003    0.004    0.049    0.054
 arnoldi_conjugate_gradient           5  6.0    0.002    0.002    0.054    0.054
 dbcsr_mm_csr_init                 4308 12.9    0.039    0.042    0.049    0.054
 dbcsr_make_index_list            21540 11.9    0.049    0.053    0.049    0.053
 dbcsr_switch_data_area           40776 13.8    0.037    0.038    0.051    0.052
 dbcsr_make_untransposed_blocks    5641 10.8    0.031    0.032    0.050    0.052
 dbcsr_make_index_exist           87886 13.4    0.047    0.050    0.047    0.050
 -------------------------------------------------------------------------------

 The number of warnings for this run is : 2
 
 -------------------------------------------------------------------------------
  **** **** ******  **  PROGRAM ENDED AT                 2025-04-28 06:08:22.331
 ***** ** ***  *** **   PROGRAM RAN ON                              i03r03c03s12
 **    ****   ******    PROGRAM RAN BY                                   di38fab
 ***** **    ** ** **   PROGRAM PROCESS ID                               2104842
  **** **  *******  **  PROGRAM STOPPED IN /hppfs/scratch/04/di38fab/07_MOL_non_
                                           aug/05_MOL_non_aug/05_MOL/W4-11+ALK/o
                                           3/cc-pVDZ/TDDFT
