 DBCSR| CPU Multiplication driver                                           BLAS (U)
 DBCSR| Multrec recursion limit                                              512 (U)
 DBCSR| Multiplication stack size                                           1000 (D)
 DBCSR| Maximum elements for images                                    UNLIMITED (U)
 DBCSR| Multiplicative factor virtual images                                   1 (U)
 DBCSR| Use multiplication densification                                       T (D)
 DBCSR| Multiplication size stacks                                             3 (U)
 DBCSR| Use memory pool for CPU allocation                                     F (U)
 DBCSR| Number of 3D layers                                               SINGLE (U)
 DBCSR| Use MPI memory allocation                                              F (U)
 DBCSR| Use RMA algorithm                                                      F (U)
 DBCSR| Use Communication thread                                               T (U)
 DBCSR| Communication thread load                                             75 (D)
 DBCSR| MPI: My process id                                                     0
 DBCSR| MPI: Number of processes                                             216
 DBCSR| OMP: Current number of threads                                         4
 DBCSR| OMP: Max number of threads                                             4
 DBCSR| Split modifier for TAS multiplication algorithm                  1.0E+00 (U)


  **** **** ******  **  PROGRAM STARTED AT               2025-03-11 13:08:05.247
 ***** ** ***  *** **   PROGRAM STARTED ON                          i06r01c03s08
 **    ****   ******    PROGRAM STARTED BY                               di38fab
 ***** **    ** ** **   PROGRAM PROCESS ID                               1222077
  **** **  *******  **  PROGRAM STARTED IN /hppfs/scratch/04/di38fab/05_MOL/aUKB
                                           qsEOTmq69kFe5R_nOg/5k_set_final_qzvp/
                                           HYXBUR10/aug-cc-pVQZ

 CP2K| version string:                 CP2K version 2025.1 (Development Version)
 CP2K| source code revision number:                                  git:d2e611a
 CP2K| cp2kflags: omp libint fftw3 libxc parallel scalapack max_contr=4         
 CP2K| is freely available from                            https://www.cp2k.org/
 CP2K| Program compiled at                       Thu 06 Mar 2025 05:09:20 PM CET
 CP2K| Program compiled on                                               login02
 CP2K| Program compiled for                                        Supermuc-foss
 CP2K| Data directory path                  /hppfs/work/pn36zo/di38fab/cp2k/data
 CP2K| Input file name                                                    GW.inp

 GLOBAL| Force Environment number                                              1
 GLOBAL| Basis set file name            /hppfs/scratch/04/di38fab/04_TMD/BASIS_A
 GLOBAL| Potential file name            /hppfs/work/pn36zo/di38fab/cp2k/data/ALL
 GLOBAL| MM Potential file name                                     MM_POTENTIAL
 GLOBAL| Coordinate file name                                      __STD_INPUT__
 GLOBAL| Method name                                                        CP2K
 GLOBAL| Project name                                                       MoS2
 GLOBAL| Run type                                                         ENERGY
 GLOBAL| FFT library                                                       FFTW3
 GLOBAL| Diagonalization library                                       ScaLAPACK
 GLOBAL| DGEMM library                                                      BLAS
 GLOBAL| Orthonormality check for eigenvectors                          DISABLED
 GLOBAL| Matrix multiplication library                                 ScaLAPACK
 GLOBAL| All-to-all communication in single precision                          F
 GLOBAL| FFTs using library dependent lengths                                  F
 GLOBAL| Grid backend                                                       AUTO
 GLOBAL| Global print level                                               MEDIUM
 GLOBAL| MPI I/O enabled                                                       T
 GLOBAL| Total number of message passing processes                           216
 GLOBAL| Number of threads for this process                                    4
 GLOBAL| This output is from process                                           0
 GLOBAL| OpenMP stack size per thread (OMP_STACKSIZE)                    default
 GLOBAL| CPU model name             Intel(R) Xeon(R) Platinum 8174 CPU @ 3.10GHz

 MEMORY| system memory details [Kb]
 MEMORY|                        rank 0           min           max       average
 MEMORY| MemTotal             98436660      98436648      98436708      98436669
 MEMORY| MemFree              83992812      83696340      85108124      84148095
 MEMORY| Buffers                     0             0             0             0
 MEMORY| Cached                2400752       2359684       2423704       2401286
 MEMORY| Slab                  1219696       1060144       1244568       1201659
 MEMORY| SReclaimable           265956        249972        276208        267506
 MEMORY| MemLikelyFree        86659520      86368916      87731424      86816888


 *** Fundamental physical constants (SI units) ***

 *** Literature: B. J. Mohr and B. N. Taylor,
 ***             CODATA recommended values of the fundamental physical
 ***             constants: 2006, Web Version 5.1
 ***             http://physics.nist.gov/constants

 Speed of light in vacuum [m/s]                             2.99792458000000E+08
 Magnetic constant or permeability of vacuum [N/A**2]       1.25663706143592E-06
 Electric constant or permittivity of vacuum [F/m]          8.85418781762039E-12
 Planck constant (h) [J*s]                                  6.62606896000000E-34
 Planck constant (h-bar) [J*s]                              1.05457162825177E-34
 Elementary charge [C]                                      1.60217648700000E-19
 Electron mass [kg]                                         9.10938215000000E-31
 Electron g factor [ ]                                     -2.00231930436220E+00
 Proton mass [kg]                                           1.67262163700000E-27
 Fine-structure constant                                    7.29735253760000E-03
 Rydberg constant [1/m]                                     1.09737315685270E+07
 Avogadro constant [1/mol]                                  6.02214179000000E+23
 Boltzmann constant [J/K]                                   1.38065040000000E-23
 Atomic mass unit [kg]                                      1.66053878200000E-27
 Bohr radius [m]                                            5.29177208590000E-11

 *** Conversion factors ***

 [u] -> [a.u.]                                              1.82288848426455E+03
 [Angstrom] -> [Bohr] = [a.u.]                              1.88972613288564E+00
 [a.u.] = [Bohr] -> [Angstrom]                              5.29177208590000E-01
 [a.u.] -> [s]                                              2.41888432650478E-17
 [a.u.] -> [fs]                                             2.41888432650478E-02
 [a.u.] -> [J]                                              4.35974393937059E-18
 [a.u.] -> [N]                                              8.23872205491840E-08
 [a.u.] -> [K]                                              3.15774647902944E+05
 [a.u.] -> [kJ/mol]                                         2.62549961709828E+03
 [a.u.] -> [kcal/mol]                                       6.27509468713739E+02
 [a.u.] -> [Pa]                                             2.94210107994716E+13
 [a.u.] -> [bar]                                            2.94210107994716E+08
 [a.u.] -> [atm]                                            2.90362800883016E+08
 [a.u.] -> [eV]                                             2.72113838565563E+01
 [a.u.] -> [Hz]                                             6.57968392072181E+15
 [a.u.] -> [1/cm] (wave numbers)                            2.19474631370540E+05
 [a.u./Bohr**2] -> [1/cm]                                   5.14048714338585E+03
 

 CELL_TOP| Volume [angstrom^3]:                                     27000.000000
 CELL_TOP| Vector a [angstrom    30.000     0.000     0.000   |a| =    30.000000
 CELL_TOP| Vector b [angstrom     0.000    30.000     0.000   |b| =    30.000000
 CELL_TOP| Vector c [angstrom     0.000     0.000    30.000   |c| =    30.000000
 CELL_TOP| Angle (b,c), alpha [degree]:                                90.000000
 CELL_TOP| Angle (a,c), beta  [degree]:                                90.000000
 CELL_TOP| Angle (a,b), gamma [degree]:                                90.000000
 CELL_TOP| Numerically orthorhombic:                                         YES
 CELL_TOP| Periodicity                                                      NONE

 GENERATE|  Preliminary Number of Bonds generated:                             0
 GENERATE|  Achieved consistency in connectivity generation.

 CELL| Volume [angstrom^3]:                                         27000.000000
 CELL| Vector a [angstrom]:      30.000     0.000     0.000   |a| =    30.000000
 CELL| Vector b [angstrom]:       0.000    30.000     0.000   |b| =    30.000000
 CELL| Vector c [angstrom]:       0.000     0.000    30.000   |c| =    30.000000
 CELL| Angle (b,c), alpha [degree]:                                    90.000000
 CELL| Angle (a,c), beta  [degree]:                                    90.000000
 CELL| Angle (a,b), gamma [degree]:                                    90.000000
 CELL| Numerically orthorhombic:                                             YES
 CELL| Periodicity                                                          NONE

 CELL_REF| Volume [angstrom^3]:                                     27000.000000
 CELL_REF| Vector a [angstrom    30.000     0.000     0.000   |a| =    30.000000
 CELL_REF| Vector b [angstrom     0.000    30.000     0.000   |b| =    30.000000
 CELL_REF| Vector c [angstrom     0.000     0.000    30.000   |c| =    30.000000
 CELL_REF| Angle (b,c), alpha [degree]:                                90.000000
 CELL_REF| Angle (a,c), beta  [degree]:                                90.000000
 CELL_REF| Angle (a,b), gamma [degree]:                                90.000000
 CELL_REF| Numerically orthorhombic:                                         YES
 CELL_REF| Periodicity                                                      NONE

 *******************************************************************************
 *******************************************************************************
 **                                                                           **
 **     #####                         ##              ##                      **
 **    ##   ##            ##          ##              ##                      **
 **   ##     ##                       ##            ######                    **
 **   ##     ##  ##   ##  ##   #####  ##  ##   ####   ##    #####    #####    **
 **   ##     ##  ##   ##  ##  ##      ## ##   ##      ##   ##   ##  ##   ##   **
 **   ##  ## ##  ##   ##  ##  ##      ####     ###    ##   ######   ######    **
 **    ##  ###   ##   ##  ##  ##      ## ##      ##   ##   ##       ##        **
 **     #######   #####   ##   #####  ##  ##  ####    ##    #####   ##        **
 **           ##                                                    ##        **
 **                                                                           **
 **                                                ... make the atoms dance   **
 **                                                                           **
 **            Copyright (C) by CP2K developers group (2000-2025)             **
 **                      J. Chem. Phys. 152, 194103 (2020)                    **
 **                                                                           **
 *******************************************************************************

 DFT| Spin restricted Kohn-Sham (RKS) calculation                            RKS
 DFT| Multiplicity                                                             1
 DFT| Number of spin states                                                    1
 DFT| Charge                                                                   0
 DFT| Self-interaction correction (SIC)                                       NO
 DFT| Cutoffs: density                                              1.000000E-10
 DFT|          gradient                                             1.000000E-10
 DFT|          tau                                                  1.000000E-10
 DFT|          cutoff_smoothing_range                               0.000000E+00
 DFT| XC density smoothing                                                  NONE
 DFT| XC derivatives                                                          PW

 FUNCTIONAL| PBE:
 FUNCTIONAL| J.P.Perdew, K.Burke, M.Ernzerhof, Phys. Rev. Letter, vol. 77, n 18,
 FUNCTIONAL|  pp. 3865-3868, (1996)sx=0.750sc=1.000{spin unpolarized}           


 QS| Method:                                                                GAPW
 QS| Density plane wave grid type                        NON-SPHERICAL FULLSPACE
 QS| Number of grid levels:                                                    4
 QS| Density cutoff [a.u.]:                                                250.0
 QS| Multi grid cutoff [a.u.]: 1) grid level                               250.0
 QS|                           2) grid level                                83.3
 QS|                           3) grid level                                27.8
 QS|                           4) grid level                                 9.3
 QS| Grid level progression factor:                                          3.0
 QS| Relative density cutoff [a.u.]:                                        50.0
 QS| Interaction thresholds: eps_pgf_orb:                                1.0E-12
 QS|                         eps_filter_matrix:                          0.0E+00
 QS|                         eps_core_charge:                            1.0E-14
 QS|                         eps_rho_gspace:                             1.0E-12
 QS|                         eps_rho_rspace:                             1.0E-12
 QS|                         eps_gvg_rspace:                             1.0E-06
 QS|                         eps_ppl:                                    1.0E-02
 QS|                         eps_ppnl:                                   1.0E-08
 QS| GAPW|      One center basis from orbital basis primitives
 QS| GAPW|                   eps_fit:                                    1.0E-04
 QS| GAPW|                   eps_iso:                                    1.0E-12
 QS| GAPW|                   eps_svd:                                    1.0E-08
 QS| GAPW|                   eps_cpc:                                    1.0E-12
 QS| GAPW|   atom-r-grid: quadrature:                                     GC_LOG
 QS| GAPW|      atom-s-grid:  max l :                                          8
 QS| GAPW|      max_l_rho0 :                                                   2


 ATOMIC KIND INFORMATION

  1. Atomic kind: N                                     Number of atoms:       3

     Orbital Basis Set                                               aug-cc-pVQZ

       Number of orbital shell sets:                                          10
       Number of orbital shells:                                              20
       Number of primitive Cartesian functions:                               29
       Number of Cartesian basis functions:                                  105
       Number of spherical basis functions:                                   80
       Norm type:                                                              2

       Normalised Cartesian orbitals:

                        Set   Shell   Orbital            Exponent    Coefficient

                          1       1    1px               0.044020       0.028741
                          1       1    1py               0.044020       0.028741
                          1       1    1pz               0.044020       0.028741

                          2       1    1s                0.054640       0.080546

                          3       1    1dx2              0.111000       0.035134
                          3       1    1dxy              0.111000       0.060853
                          3       1    1dxz              0.111000       0.060853
                          3       1    1dy2              0.111000       0.035134
                          3       1    1dyz              0.111000       0.060853
                          3       1    1dz2              0.111000       0.035134

                          4       1    1px              49.330000       0.000000
                                                        11.370000       0.000000
                                                         3.435000       0.000000
                                                         1.182000       1.756758
                                                         0.417300       0.000000
                                                         0.142800       0.000000
                          4       1    1py              49.330000       0.000000
                                                        11.370000       0.000000
                                                         3.435000       0.000000
                                                         1.182000       1.756758
                                                         0.417300       0.000000
                                                         0.142800       0.000000
                          4       1    1pz              49.330000       0.000000
                                                        11.370000       0.000000
                                                         3.435000       0.000000
                                                         1.182000       1.756758
                                                         0.417300       0.000000
                                                         0.142800       0.000000

                          4       2    2px              49.330000       1.031073
                                                        11.370000       1.129768
                                                         3.435000       0.993381
                                                         1.182000       0.612971
                                                         0.417300       0.219425
                                                         0.142800       0.030646
                          4       2    2py              49.330000       1.031073
                                                        11.370000       1.129768
                                                         3.435000       0.993381
                                                         1.182000       0.612971
                                                         0.417300       0.219425
                                                         0.142800       0.030646
                          4       2    2pz              49.330000       1.031073
                                                        11.370000       1.129768
                                                         3.435000       0.993381
                                                         1.182000       0.612971
                                                         0.417300       0.219425
                                                         0.142800       0.030646

                          4       3    3px              49.330000       0.000000
                                                        11.370000       0.000000
                                                         3.435000       0.000000
                                                         1.182000       0.000000
                                                         0.417300       0.478080
                                                         0.142800       0.000000
                          4       3    3py              49.330000       0.000000
                                                        11.370000       0.000000
                                                         3.435000       0.000000
                                                         1.182000       0.000000
                                                         0.417300       0.478080
                                                         0.142800       0.000000
                          4       3    3pz              49.330000       0.000000
                                                        11.370000       0.000000
                                                         3.435000       0.000000
                                                         1.182000       0.000000
                                                         0.417300       0.478080
                                                         0.142800       0.000000

                          4       4    4px              49.330000       0.000000
                                                        11.370000       0.000000
                                                         3.435000       0.000000
                                                         1.182000       0.000000
                                                         0.417300       0.000000
                                                         0.142800       0.125127
                          4       4    4py              49.330000       0.000000
                                                        11.370000       0.000000
                                                         3.435000       0.000000
                                                         1.182000       0.000000
                                                         0.417300       0.000000
                                                         0.142800       0.125127
                          4       4    4pz              49.330000       0.000000
                                                        11.370000       0.000000
                                                         3.435000       0.000000
                                                         1.182000       0.000000
                                                         0.417300       0.000000
                                                         0.142800       0.125127

                          5       1    1s            45840.000000       0.205414
                                                      6868.000000       0.385524
                                                      1563.000000       0.664193
                                                       442.400000       1.067821
                                                       144.300000       1.576994
                                                        52.180000       2.031073
                                                        20.340000       2.079662
                                                         8.381000       1.396111
                                                         3.529000       0.399383
                                                         1.054000       0.012576
                                                         0.411800      -0.001006
                                                         0.155200       0.000168

                          5       2    2s            45840.000000       0.000000
                                                      6868.000000       0.000000
                                                      1563.000000       0.000000
                                                       442.400000       0.000000
                                                       144.300000       0.000000
                                                        52.180000       0.000000
                                                        20.340000       0.000000
                                                         8.381000       0.000000
                                                         3.529000       0.000000
                                                         1.054000       0.741379
                                                         0.411800       0.000000
                                                         0.155200       0.000000

                          5       3    3s            45840.000000       0.000000
                                                      6868.000000       0.000000
                                                      1563.000000       0.000000
                                                       442.400000       0.000000
                                                       144.300000       0.000000
                                                        52.180000       0.000000
                                                        20.340000       0.000000
                                                         8.381000       0.000000
                                                         3.529000       0.000000
                                                         1.054000       0.000000
                                                         0.411800       0.366374
                                                         0.155200       0.000000

                          5       4    4s            45840.000000      -0.044655
                                                      6868.000000      -0.085493
                                                      1563.000000      -0.145985
                                                       442.400000      -0.239112
                                                       144.300000      -0.355066
                                                        52.180000      -0.489660
                                                        20.340000      -0.546615
                                                         8.381000      -0.515083
                                                         3.529000      -0.213527
                                                         1.054000       0.207526
                                                         0.411800       0.214505
                                                         0.155200       0.050054

                          5       5    5s            45840.000000       0.000000
                                                      6868.000000       0.000000
                                                      1563.000000       0.000000
                                                       442.400000       0.000000
                                                       144.300000       0.000000
                                                        52.180000       0.000000
                                                        20.340000       0.000000
                                                         8.381000       0.000000
                                                         3.529000       0.000000
                                                         1.054000       0.000000
                                                         0.411800       0.000000
                                                         0.155200       0.176230

                          6       1    1fx3              0.245000       0.062170
                          6       1    1fx2y             0.245000       0.139015
                          6       1    1fx2z             0.245000       0.139015
                          6       1    1fxy2             0.245000       0.139015
                          6       1    1fxyz             0.245000       0.240782
                          6       1    1fxz2             0.245000       0.139015
                          6       1    1fy3              0.245000       0.062170
                          6       1    1fy2z             0.245000       0.139015
                          6       1    1fyz2             0.245000       0.139015
                          6       1    1fz3              0.245000       0.062170

                          7       1    1dx2              2.837000      10.207357
                                                         0.968000       0.000000
                                                         0.335000       0.000000
                          7       1    1dxy              2.837000      17.679661
                                                         0.968000       0.000000
                                                         0.335000       0.000000
                          7       1    1dxz              2.837000      17.679661
                                                         0.968000       0.000000
                                                         0.335000       0.000000
                          7       1    1dy2              2.837000      10.207357
                                                         0.968000       0.000000
                                                         0.335000       0.000000
                          7       1    1dyz              2.837000      17.679661
                                                         0.968000       0.000000
                                                         0.335000       0.000000
                          7       1    1dz2              2.837000      10.207357
                                                         0.968000       0.000000
                                                         0.335000       0.000000

                          7       2    2dx2              2.837000       0.000000
                                                         0.968000       1.554860
                                                         0.335000       0.000000
                          7       2    2dxy              2.837000       0.000000
                                                         0.968000       2.693097
                                                         0.335000       0.000000
                          7       2    2dxz              2.837000       0.000000
                                                         0.968000       2.693097
                                                         0.335000       0.000000
                          7       2    2dy2              2.837000       0.000000
                                                         0.968000       1.554860
                                                         0.335000       0.000000
                          7       2    2dyz              2.837000       0.000000
                                                         0.968000       2.693097
                                                         0.335000       0.000000
                          7       2    2dz2              2.837000       0.000000
                                                         0.968000       1.554860
                                                         0.335000       0.000000

                          7       3    3dx2              2.837000       0.000000
                                                         0.968000       0.000000
                                                         0.335000       0.242794
                          7       3    3dxy              2.837000       0.000000
                                                         0.968000       0.000000
                                                         0.335000       0.420531
                          7       3    3dxz              2.837000       0.000000
                                                         0.968000       0.000000
                                                         0.335000       0.420531
                          7       3    3dy2              2.837000       0.000000
                                                         0.968000       0.000000
                                                         0.335000       0.242794
                          7       3    3dyz              2.837000       0.000000
                                                         0.968000       0.000000
                                                         0.335000       0.420531
                          7       3    3dz2              2.837000       0.000000
                                                         0.968000       0.000000
                                                         0.335000       0.242794

                          8       1    1gx4              0.559000       0.224811
                          8       1    1gx3y             0.559000       0.594794
                          8       1    1gx3z             0.559000       0.594794
                          8       1    1gx2y2            0.559000       0.767876
                          8       1    1gx2yz            0.559000       1.330001
                          8       1    1gx2z2            0.559000       0.767876
                          8       1    1gxy3             0.559000       0.594794
                          8       1    1gxy2z            0.559000       1.330001
                          8       1    1gxyz2            0.559000       1.330001
                          8       1    1gxz3             0.559000       0.594794
                          8       1    1gy4              0.559000       0.224811
                          8       1    1gy3z             0.559000       0.594794
                          8       1    1gy2z2            0.559000       0.767876
                          8       1    1gyz3             0.559000       0.594794
                          8       1    1gz4              0.559000       0.224811

                          9       1    1fx3              2.027000       7.217310
                                                         0.685000       0.000000
                          9       1    1fx2y             2.027000      16.138397
                                                         0.685000       0.000000
                          9       1    1fx2z             2.027000      16.138397
                                                         0.685000       0.000000
                          9       1    1fxy2             2.027000      16.138397
                                                         0.685000       0.000000
                          9       1    1fxyz             2.027000      27.952523
                                                         0.685000       0.000000
                          9       1    1fxz2             2.027000      16.138397
                                                         0.685000       0.000000
                          9       1    1fy3              2.027000       7.217310
                                                         0.685000       0.000000
                          9       1    1fy2z             2.027000      16.138397
                                                         0.685000       0.000000
                          9       1    1fyz2             2.027000      16.138397
                                                         0.685000       0.000000
                          9       1    1fz3              2.027000       7.217310
                                                         0.685000       0.000000

                          9       2    2fx3              2.027000       0.000000
                                                         0.685000       0.628432
                          9       2    2fx2y             2.027000       0.000000
                                                         0.685000       1.405216
                          9       2    2fx2z             2.027000       0.000000
                                                         0.685000       1.405216
                          9       2    2fxy2             2.027000       0.000000
                                                         0.685000       1.405216
                          9       2    2fxyz             2.027000       0.000000
                                                         0.685000       2.433906
                          9       2    2fxz2             2.027000       0.000000
                                                         0.685000       1.405216
                          9       2    2fy3              2.027000       0.000000
                                                         0.685000       0.628432
                          9       2    2fy2z             2.027000       0.000000
                                                         0.685000       1.405216
                          9       2    2fyz2             2.027000       0.000000
                                                         0.685000       1.405216
                          9       2    2fz3              2.027000       0.000000
                                                         0.685000       0.628432

                         10       1    1gx4              1.427000       2.958703
                         10       1    1gx3y             1.427000       7.827992
                         10       1    1gx3z             1.427000       7.827992
                         10       1    1gx2y2            1.427000      10.105894
                         10       1    1gx2yz            1.427000      17.503922
                         10       1    1gx2z2            1.427000      10.105894
                         10       1    1gxy3             1.427000       7.827992
                         10       1    1gxy2z            1.427000      17.503922
                         10       1    1gxyz2            1.427000      17.503922
                         10       1    1gxz3             1.427000       7.827992
                         10       1    1gy4              1.427000       2.958703
                         10       1    1gy3z             1.427000       7.827992
                         10       1    1gy2z2            1.427000      10.105894
                         10       1    1gyz3             1.427000       7.827992
                         10       1    1gz4              1.427000       2.958703

     RI Auxiliary Basis Set                                    aug-cc-pVQZ-OPTRI

       Number of orbital shell sets:                                          19
       Number of orbital shells:                                              19
       Number of primitive Cartesian functions:                               19
       Number of Cartesian basis functions:                                  124
       Number of spherical basis functions:                                   89
       Norm type:                                                              2

       Normalised Cartesian orbitals:

                        Set   Shell   Orbital            Exponent    Coefficient

                          1       1    1s                0.082178       0.109390

                          2       1    1px               0.086781       0.067138
                          2       1    1py               0.086781       0.067138
                          2       1    1pz               0.086781       0.067138

                          3       1    1dx2              0.164994       0.070304
                          3       1    1dxy              0.164994       0.121770
                          3       1    1dxz              0.164994       0.121770
                          3       1    1dy2              0.164994       0.070304
                          3       1    1dyz              0.164994       0.121770
                          3       1    1dz2              0.164994       0.070304

                          4       1    1px               0.213400       0.206744
                          4       1    1py               0.213400       0.206744
                          4       1    1pz               0.213400       0.206744

                          5       1    1s                0.230143       0.236815

                          6       1    1fx3              0.366896       0.154233
                          6       1    1fx2y             0.366896       0.344875
                          6       1    1fx2z             0.366896       0.344875
                          6       1    1fxy2             0.366896       0.344875
                          6       1    1fxyz             0.366896       0.597340
                          6       1    1fxz2             0.366896       0.344875
                          6       1    1fy3              0.366896       0.154233
                          6       1    1fy2z             0.366896       0.344875
                          6       1    1fyz2             0.366896       0.344875
                          6       1    1fz3              0.366896       0.154233

                          7       1    1dx2              0.501047       0.491130
                          7       1    1dxy              0.501047       0.850663
                          7       1    1dxz              0.501047       0.850663
                          7       1    1dy2              0.501047       0.491130
                          7       1    1dyz              0.501047       0.850663
                          7       1    1dz2              0.501047       0.491130

                          8       1    1px               0.624364       0.791111
                          8       1    1py               0.624364       0.791111
                          8       1    1pz               0.624364       0.791111

                          9       1    1s                0.697534       0.543981

                         10       1    1gx4              0.954639       0.979475
                         10       1    1gx3y             0.954639       2.591446
                         10       1    1gx3z             0.954639       2.591446
                         10       1    1gx2y2            0.954639       3.345542
                         10       1    1gx2yz            0.954639       5.794650
                         10       1    1gx2z2            0.954639       3.345542
                         10       1    1gxy3             0.954639       2.591446
                         10       1    1gxy2z            0.954639       5.794650
                         10       1    1gxyz2            0.954639       5.794650
                         10       1    1gxz3             0.954639       2.591446
                         10       1    1gy4              0.954639       0.979475
                         10       1    1gy3z             0.954639       2.591446
                         10       1    1gy2z2            0.954639       3.345542
                         10       1    1gyz3             0.954639       2.591446
                         10       1    1gz4              0.954639       0.979475

                         11       1    1fx3              1.025181       1.556882
                         11       1    1fx2y             1.025181       3.481294
                         11       1    1fx2z             1.025181       3.481294
                         11       1    1fxy2             1.025181       3.481294
                         11       1    1fxyz             1.025181       6.029778
                         11       1    1fxz2             1.025181       3.481294
                         11       1    1fy3              1.025181       1.556882
                         11       1    1fy2z             1.025181       3.481294
                         11       1    1fyz2             1.025181       3.481294
                         11       1    1fz3              1.025181       1.556882

                         12       1    1dx2              1.439989       3.115574
                         12       1    1dxy              1.439989       5.396332
                         12       1    1dxz              1.439989       5.396332
                         12       1    1dy2              1.439989       3.115574
                         12       1    1dyz              1.439989       5.396332
                         12       1    1dz2              1.439989       3.115574

                         13       1    1hx5              1.731607       4.418802
                         13       1    1hx4y             1.731607      13.256405
                         13       1    1hx4z             1.731607      13.256405
                         13       1    1hx3y2            1.731607      20.249493
                         13       1    1hx3yz            1.731607      35.073150
                         13       1    1hx3z2            1.731607      20.249493
                         13       1    1hx2y3            1.731607      20.249493
                         13       1    1hx2y2z           1.731607      45.279242
                         13       1    1hx2yz2           1.731607      45.279242
                         13       1    1hx2z3            1.731607      20.249493
                         13       1    1hxy4             1.731607      13.256405
                         13       1    1hxy3z            1.731607      35.073150
                         13       1    1hxy2z2           1.731607      45.279242
                         13       1    1hxyz3            1.731607      35.073150
                         13       1    1hxz4             1.731607      13.256405
                         13       1    1hy5              1.731607       4.418802
                         13       1    1hy4z             1.731607      13.256405
                         13       1    1hy3z2            1.731607      20.249493
                         13       1    1hy2z3            1.731607      20.249493
                         13       1    1hyz4             1.731607      13.256405
                         13       1    1hz5              1.731607       4.418802

                         14       1    1px               1.751644       2.872416
                         14       1    1py               1.751644       2.872416
                         14       1    1pz               1.751644       2.872416

                         15       1    1s                2.722026       1.510356

                         16       1    1gx4              3.005374      22.943326
                         16       1    1gx3y             3.005374      60.702334
                         16       1    1gx3z             3.005374      60.702334
                         16       1    1gx2y2            3.005374      78.366376
                         16       1    1gx2yz            3.005374     135.734545
                         16       1    1gx2z2            3.005374      78.366376
                         16       1    1gxy3             3.005374      60.702334
                         16       1    1gxy2z            3.005374     135.734545
                         16       1    1gxyz2            3.005374     135.734545
                         16       1    1gxz3             3.005374      60.702334
                         16       1    1gy4              3.005374      22.943326
                         16       1    1gy3z             3.005374      60.702334
                         16       1    1gy2z2            3.005374      78.366376
                         16       1    1gyz3             3.005374      60.702334
                         16       1    1gz4              3.005374      22.943326

                         17       1    1fx3              4.926743      53.237082
                         17       1    1fx2y             4.926743     119.041734
                         17       1    1fx2z             4.926743     119.041734
                         17       1    1fxy2             4.926743     119.041734
                         17       1    1fxyz             4.926743     206.186332
                         17       1    1fxz2             4.926743     119.041734
                         17       1    1fy3              4.926743      53.237082
                         17       1    1fy2z             4.926743     119.041734
                         17       1    1fyz2             4.926743     119.041734
                         17       1    1fz3              4.926743      53.237082

                         18       1    1px               5.121619      10.982448
                         18       1    1py               5.121619      10.982448
                         18       1    1pz               5.121619      10.982448

                         19       1    1dx2              7.494220      55.870264
                         19       1    1dxy              7.494220      96.770136
                         19       1    1dxz              7.494220      96.770136
                         19       1    1dy2              7.494220      55.870264
                         19       1    1dyz              7.494220      96.770136
                         19       1    1dz2              7.494220      55.870264

       Atomic covalent radius [Angstrom]:                                  0.750

       Atomic van der Waals radius [Angstrom]:                             1.550

     The atoms of this atomic kind are PAW atoms (GAPW):
       Hard Gaussian function radius:                                      1.512
       Rho0 radius:                                                        1.512
       Maximum GTO radius used for PAW projector construction:            24.566

     GAPW Soft Basis Set                                        aug-cc-pVQZ_soft

       Number of orbital shell sets:                                          10
       Number of orbital shells:                                              20
       Number of primitive Cartesian functions:                               19
       Number of Cartesian basis functions:                                  105
       Number of spherical basis functions:                                   80
       Norm type:                                                              2

       Normalised Cartesian orbitals:

                        Set   Shell   Orbital            Exponent    Coefficient

                          1       1    1px               0.044020       0.028741
                          1       1    1py               0.044020       0.028741
                          1       1    1pz               0.044020       0.028741

                          2       1    1s                0.054640       0.080546

                          3       1    1dx2              0.111000       0.035134
                          3       1    1dxy              0.111000       0.060853
                          3       1    1dxz              0.111000       0.060853
                          3       1    1dy2              0.111000       0.035134
                          3       1    1dyz              0.111000       0.060853
                          3       1    1dz2              0.111000       0.035134

                          4       1    1px               3.435000       0.000000
                                                         1.182000       1.756758
                                                         0.417300       0.000000
                                                         0.142800       0.000000
                          4       1    1py               3.435000       0.000000
                                                         1.182000       1.756758
                                                         0.417300       0.000000
                                                         0.142800       0.000000
                          4       1    1pz               3.435000       0.000000
                                                         1.182000       1.756758
                                                         0.417300       0.000000
                                                         0.142800       0.000000

                          4       2    2px               3.435000       0.993381
                                                         1.182000       0.612971
                                                         0.417300       0.219425
                                                         0.142800       0.030646
                          4       2    2py               3.435000       0.993381
                                                         1.182000       0.612971
                                                         0.417300       0.219425
                                                         0.142800       0.030646
                          4       2    2pz               3.435000       0.993381
                                                         1.182000       0.612971
                                                         0.417300       0.219425
                                                         0.142800       0.030646

                          4       3    3px               3.435000       0.000000
                                                         1.182000       0.000000
                                                         0.417300       0.478080
                                                         0.142800       0.000000
                          4       3    3py               3.435000       0.000000
                                                         1.182000       0.000000
                                                         0.417300       0.478080
                                                         0.142800       0.000000
                          4       3    3pz               3.435000       0.000000
                                                         1.182000       0.000000
                                                         0.417300       0.478080
                                                         0.142800       0.000000

                          4       4    4px               3.435000       0.000000
                                                         1.182000       0.000000
                                                         0.417300       0.000000
                                                         0.142800       0.125127
                          4       4    4py               3.435000       0.000000
                                                         1.182000       0.000000
                                                         0.417300       0.000000
                                                         0.142800       0.125127
                          4       4    4pz               3.435000       0.000000
                                                         1.182000       0.000000
                                                         0.417300       0.000000
                                                         0.142800       0.125127

                          5       1    1s                3.529000       0.399383
                                                         1.054000       0.012576
                                                         0.411800      -0.001006
                                                         0.155200       0.000168

                          5       2    2s                3.529000       0.000000
                                                         1.054000       0.741379
                                                         0.411800       0.000000
                                                         0.155200       0.000000

                          5       3    3s                3.529000       0.000000
                                                         1.054000       0.000000
                                                         0.411800       0.366374
                                                         0.155200       0.000000

                          5       4    4s                3.529000      -0.213527
                                                         1.054000       0.207526
                                                         0.411800       0.214505
                                                         0.155200       0.050054

                          5       5    5s                3.529000       0.000000
                                                         1.054000       0.000000
                                                         0.411800       0.000000
                                                         0.155200       0.176230

                          6       1    1fx3              0.245000       0.062170
                          6       1    1fx2y             0.245000       0.139015
                          6       1    1fx2z             0.245000       0.139015
                          6       1    1fxy2             0.245000       0.139015
                          6       1    1fxyz             0.245000       0.240782
                          6       1    1fxz2             0.245000       0.139015
                          6       1    1fy3              0.245000       0.062170
                          6       1    1fy2z             0.245000       0.139015
                          6       1    1fyz2             0.245000       0.139015
                          6       1    1fz3              0.245000       0.062170

                          7       1    1dx2              2.837000      10.207357
                                                         0.968000       0.000000
                                                         0.335000       0.000000
                          7       1    1dxy              2.837000      17.679661
                                                         0.968000       0.000000
                                                         0.335000       0.000000
                          7       1    1dxz              2.837000      17.679661
                                                         0.968000       0.000000
                                                         0.335000       0.000000
                          7       1    1dy2              2.837000      10.207357
                                                         0.968000       0.000000
                                                         0.335000       0.000000
                          7       1    1dyz              2.837000      17.679661
                                                         0.968000       0.000000
                                                         0.335000       0.000000
                          7       1    1dz2              2.837000      10.207357
                                                         0.968000       0.000000
                                                         0.335000       0.000000

                          7       2    2dx2              2.837000       0.000000
                                                         0.968000       1.554860
                                                         0.335000       0.000000
                          7       2    2dxy              2.837000       0.000000
                                                         0.968000       2.693097
                                                         0.335000       0.000000
                          7       2    2dxz              2.837000       0.000000
                                                         0.968000       2.693097
                                                         0.335000       0.000000
                          7       2    2dy2              2.837000       0.000000
                                                         0.968000       1.554860
                                                         0.335000       0.000000
                          7       2    2dyz              2.837000       0.000000
                                                         0.968000       2.693097
                                                         0.335000       0.000000
                          7       2    2dz2              2.837000       0.000000
                                                         0.968000       1.554860
                                                         0.335000       0.000000

                          7       3    3dx2              2.837000       0.000000
                                                         0.968000       0.000000
                                                         0.335000       0.242794
                          7       3    3dxy              2.837000       0.000000
                                                         0.968000       0.000000
                                                         0.335000       0.420531
                          7       3    3dxz              2.837000       0.000000
                                                         0.968000       0.000000
                                                         0.335000       0.420531
                          7       3    3dy2              2.837000       0.000000
                                                         0.968000       0.000000
                                                         0.335000       0.242794
                          7       3    3dyz              2.837000       0.000000
                                                         0.968000       0.000000
                                                         0.335000       0.420531
                          7       3    3dz2              2.837000       0.000000
                                                         0.968000       0.000000
                                                         0.335000       0.242794

                          8       1    1gx4              0.559000       0.224811
                          8       1    1gx3y             0.559000       0.594794
                          8       1    1gx3z             0.559000       0.594794
                          8       1    1gx2y2            0.559000       0.767876
                          8       1    1gx2yz            0.559000       1.330001
                          8       1    1gx2z2            0.559000       0.767876
                          8       1    1gxy3             0.559000       0.594794
                          8       1    1gxy2z            0.559000       1.330001
                          8       1    1gxyz2            0.559000       1.330001
                          8       1    1gxz3             0.559000       0.594794
                          8       1    1gy4              0.559000       0.224811
                          8       1    1gy3z             0.559000       0.594794
                          8       1    1gy2z2            0.559000       0.767876
                          8       1    1gyz3             0.559000       0.594794
                          8       1    1gz4              0.559000       0.224811

                          9       1    1fx3              2.027000       7.217310
                                                         0.685000       0.000000
                          9       1    1fx2y             2.027000      16.138397
                                                         0.685000       0.000000
                          9       1    1fx2z             2.027000      16.138397
                                                         0.685000       0.000000
                          9       1    1fxy2             2.027000      16.138397
                                                         0.685000       0.000000
                          9       1    1fxyz             2.027000      27.952523
                                                         0.685000       0.000000
                          9       1    1fxz2             2.027000      16.138397
                                                         0.685000       0.000000
                          9       1    1fy3              2.027000       7.217310
                                                         0.685000       0.000000
                          9       1    1fy2z             2.027000      16.138397
                                                         0.685000       0.000000
                          9       1    1fyz2             2.027000      16.138397
                                                         0.685000       0.000000
                          9       1    1fz3              2.027000       7.217310
                                                         0.685000       0.000000

                          9       2    2fx3              2.027000       0.000000
                                                         0.685000       0.628432
                          9       2    2fx2y             2.027000       0.000000
                                                         0.685000       1.405216
                          9       2    2fx2z             2.027000       0.000000
                                                         0.685000       1.405216
                          9       2    2fxy2             2.027000       0.000000
                                                         0.685000       1.405216
                          9       2    2fxyz             2.027000       0.000000
                                                         0.685000       2.433906
                          9       2    2fxz2             2.027000       0.000000
                                                         0.685000       1.405216
                          9       2    2fy3              2.027000       0.000000
                                                         0.685000       0.628432
                          9       2    2fy2z             2.027000       0.000000
                                                         0.685000       1.405216
                          9       2    2fyz2             2.027000       0.000000
                                                         0.685000       1.405216
                          9       2    2fz3              2.027000       0.000000
                                                         0.685000       0.628432

                         10       1    1gx4              1.427000       2.958703
                         10       1    1gx3y             1.427000       7.827992
                         10       1    1gx3z             1.427000       7.827992
                         10       1    1gx2y2            1.427000      10.105894
                         10       1    1gx2yz            1.427000      17.503922
                         10       1    1gx2z2            1.427000      10.105894
                         10       1    1gxy3             1.427000       7.827992
                         10       1    1gxy2z            1.427000      17.503922
                         10       1    1gxyz2            1.427000      17.503922
                         10       1    1gxz3             1.427000       7.827992
                         10       1    1gy4              1.427000       2.958703
                         10       1    1gy3z             1.427000       7.827992
                         10       1    1gy2z2            1.427000      10.105894
                         10       1    1gyz3             1.427000       7.827992
                         10       1    1gz4              1.427000       2.958703

     AE Potential information for                                            ALL

       Description:                                       All-electron potential
                                          Krack, Parrinello, PCCP 2, 2105 (2000)

       Gaussian exponent of the core charge distribution:               5.979100
       Electronic configuration (s p d ...):                           4   3   0

  2. Atomic kind: C                                     Number of atoms:       2

     Orbital Basis Set                                               aug-cc-pVQZ

       Number of orbital shell sets:                                          10
       Number of orbital shells:                                              20
       Number of primitive Cartesian functions:                               29
       Number of Cartesian basis functions:                                  105
       Number of spherical basis functions:                                   80
       Norm type:                                                              2

       Normalised Cartesian orbitals:

                        Set   Shell   Orbital            Exponent    Coefficient

                          1       1    1px               0.032180       0.019428
                          1       1    1py               0.032180       0.019428
                          1       1    1pz               0.032180       0.019428

                          2       1    1s                0.041450       0.065472

                          3       1    1dx2              0.076600       0.018357
                          3       1    1dxy              0.076600       0.031796
                          3       1    1dxz              0.076600       0.031796
                          3       1    1dy2              0.076600       0.018357
                          3       1    1dyz              0.076600       0.031796
                          3       1    1dz2              0.076600       0.018357

                          4       1    1px              34.510000       0.000000
                                                         7.915000       0.000000
                                                         2.368000       0.000000
                                                         0.813200       1.100745
                                                         0.289000       0.000000
                                                         0.100700       0.000000
                          4       1    1py              34.510000       0.000000
                                                         7.915000       0.000000
                                                         2.368000       0.000000
                                                         0.813200       1.100745
                                                         0.289000       0.000000
                                                         0.100700       0.000000
                          4       1    1pz              34.510000       0.000000
                                                         7.915000       0.000000
                                                         2.368000       0.000000
                                                         0.813200       1.100745
                                                         0.289000       0.000000
                                                         0.100700       0.000000

                          4       2    2px              34.510000       0.641198
                                                         7.915000       0.683747
                                                         2.368000       0.596637
                                                         0.813200       0.376620
                                                         0.289000       0.140105
                                                         0.100700       0.020217
                          4       2    2py              34.510000       0.641198
                                                         7.915000       0.683747
                                                         2.368000       0.596637
                                                         0.813200       0.376620
                                                         0.289000       0.140105
                                                         0.100700       0.020217
                          4       2    2pz              34.510000       0.641198
                                                         7.915000       0.683747
                                                         2.368000       0.596637
                                                         0.813200       0.376620
                                                         0.289000       0.140105
                                                         0.100700       0.020217

                          4       3    3px              34.510000       0.000000
                                                         7.915000       0.000000
                                                         2.368000       0.000000
                                                         0.813200       0.000000
                                                         0.289000       0.302039
                                                         0.100700       0.000000
                          4       3    3py              34.510000       0.000000
                                                         7.915000       0.000000
                                                         2.368000       0.000000
                                                         0.813200       0.000000
                                                         0.289000       0.302039
                                                         0.100700       0.000000
                          4       3    3pz              34.510000       0.000000
                                                         7.915000       0.000000
                                                         2.368000       0.000000
                                                         0.813200       0.000000
                                                         0.289000       0.302039
                                                         0.100700       0.000000

                          4       4    4px              34.510000       0.000000
                                                         7.915000       0.000000
                                                         2.368000       0.000000
                                                         0.813200       0.000000
                                                         0.289000       0.000000
                                                         0.100700       0.080859
                          4       4    4py              34.510000       0.000000
                                                         7.915000       0.000000
                                                         2.368000       0.000000
                                                         0.813200       0.000000
                                                         0.289000       0.000000
                                                         0.100700       0.080859
                          4       4    4pz              34.510000       0.000000
                                                         7.915000       0.000000
                                                         2.368000       0.000000
                                                         0.813200       0.000000
                                                         0.289000       0.000000
                                                         0.100700       0.080859

                          5       1    1s            33980.000000       0.162319
                                                      5089.000000       0.302313
                                                      1157.000000       0.522143
                                                       326.600000       0.841034
                                                       106.100000       1.247069
                                                        38.110000       1.607436
                                                        14.750000       1.639463
                                                         6.035000       1.095889
                                                         2.530000       0.310322
                                                         0.735500       0.008997
                                                         0.290500      -0.000870
                                                         0.111100       0.000134

                          5       2    2s            33980.000000       0.000000
                                                      5089.000000       0.000000
                                                      1157.000000       0.000000
                                                       326.600000       0.000000
                                                       106.100000       0.000000
                                                        38.110000       0.000000
                                                        14.750000       0.000000
                                                         6.035000       0.000000
                                                         2.530000       0.000000
                                                         0.735500       0.566040
                                                         0.290500       0.000000
                                                         0.111100       0.000000

                          5       3    3s            33980.000000       0.000000
                                                      5089.000000       0.000000
                                                      1157.000000       0.000000
                                                       326.600000       0.000000
                                                       106.100000       0.000000
                                                        38.110000       0.000000
                                                        14.750000       0.000000
                                                         6.035000       0.000000
                                                         2.530000       0.000000
                                                         0.735500       0.000000
                                                         0.290500       0.282013
                                                         0.111100       0.000000

                          5       4    4s            33980.000000      -0.033891
                                                      5089.000000      -0.064843
                                                      1157.000000      -0.110989
                                                       326.600000      -0.182005
                                                       106.100000      -0.271236
                                                        38.110000      -0.373428
                                                        14.750000      -0.413970
                                                         6.035000      -0.388287
                                                         2.530000      -0.168734
                                                         0.735500       0.154985
                                                         0.290500       0.165404
                                                         0.111100       0.039147

                          5       5    5s            33980.000000       0.000000
                                                      5089.000000       0.000000
                                                      1157.000000       0.000000
                                                       326.600000       0.000000
                                                       106.100000       0.000000
                                                        38.110000       0.000000
                                                        14.750000       0.000000
                                                         6.035000       0.000000
[...]
 parallel_gemm_fm                   401  8.3    0.001    0.001  235.007  239.295
 parallel_gemm_fm_gemm              401  9.3    0.001    0.001  235.006  239.294
 cp_fm_gemm                         401 10.3  235.005  239.293  235.005  239.293
 hfx_ks_matrix                       91  8.0    0.004    0.004  167.438  167.525
 integrate_four_center               91  9.0    2.015    4.083  167.432  167.520
 start_bse_calculation                1  7.0    0.001    0.004  163.527  163.530
 cp_fm_syevd                         96  7.0    0.001    0.001  133.285  133.539
 cp_fm_redistribute_end              96  8.0   66.566  133.237   66.747  133.264
 cp_fm_syevd_base                    96  8.0   66.162  132.416   66.162  132.416
 integrate_four_center_main          91 10.0    0.887    3.744   79.164   87.058
 integrate_four_center_bin        29719 11.0   78.277   86.787   78.277   86.787
 create_hermitian_form_of_ABBA        1  8.0    0.000    0.002   83.807   83.887
 diagonalize_C                        1  8.0    0.001    0.003   72.087   72.114
 cp_fm_power                          2  7.5    0.242    0.263   67.226   67.378
 calc_screening_functions             1 10.0   54.749   58.584   60.651   64.623
 fft_wrap_pw1pw2                   1902  9.9    0.030    0.042   28.535   28.988
 sum_up_and_integrate                91  8.0    0.001    0.002   28.928   28.968
 integrate_v_rspace                  91  9.0    0.002    0.003   28.885   28.944
 mp_sync                            911  9.6   17.682   28.597   17.682   28.597
 qs_rho_update_rho_low               91  5.0    0.001    0.001   27.846   27.850
 fft_wrap_pw1pw2_250               1356 11.1    0.942    1.040   26.976   27.380
 calculate_rho_elec                  91  6.0    0.198    0.212   25.331   25.334
 fft3d_ps                          1902 11.9    8.962    9.628   24.555   25.091
 mp_alltoall_d11v                  1648  9.4   21.506   23.365   21.506   23.365
 pw_poisson_solve                    91  8.0    0.532    0.571   22.836   22.851
 density_rs2pw                       91  7.0    0.005    0.006   19.147   20.828
 rs_gather_matrices                  91 10.0    0.011    0.038   19.824   20.617
 grid_integrate_task_list            91 10.0    0.777   20.351    0.777   20.351
 transfer_rs2pw                     456  8.4    0.010    0.017   16.686   18.358
 mp_alltoall_z22v                  1902 13.9   13.407   16.965   13.407   16.965
 mp_waitany                       23016 11.5   14.436   16.434   14.436   16.434
 mp_sum_d                         14809  6.9   14.043   16.363   14.043   16.363
 prepare_gapw_den                    91  8.0    0.003    0.003   16.100   16.167
 qs_vxc_create                       91  8.0    0.001    0.001   16.032   16.032
 xc_vxc_pw_create                    90  9.0    0.252    0.293   16.030   16.031
 ps_wavelet_solve                    91  9.0    8.980   13.143   15.610   15.681
 grid_collocate_task_list            91  7.0    5.539   15.632    5.539   15.632
 transfer_rs2pw_250                 183 10.0    1.494    1.712   12.914   14.717
 mp2_ri_gpw_compute_in                1  5.0    0.013    0.029   13.560   13.568
 mp2_ri_gpw_compute_in_loop           1  6.0    0.000    0.000   13.506   13.513
 xc_pw_derive                       540 11.0    0.004    0.005   12.194   13.028
 contract_B_L                         4  7.0    0.042    0.049   10.578   12.648
 qs_scf_new_mos                      90  5.0    0.001    0.001   12.308   12.360
 mp_alltoall_d54                     91 10.0    4.995   12.338    4.995   12.338
 calculate_vxc_atom                  91  8.0    0.073    1.117   11.361   11.361
 eigensolver_symm                    91  6.0    0.004    0.005   11.215   11.228
 calculate_rho_atom                 364  9.0    2.811   10.256    2.811   10.257
 gaVxcgb_GC                         270  9.0    0.191   10.057    0.191   10.057
 powell_optimize                3933595 11.0    9.726   10.045    9.726   10.045
 yz_to_x                            725 13.2    0.652    0.795    7.428    9.777
 xc_pw_divergence                    90 10.0    0.002    0.003    8.213    8.975
 mp_sum_dv                        37423  9.9    8.008    8.553    8.008    8.553
 potential_pw2rs                     91 10.0    0.019    0.025    8.281    8.356
 x_to_yz                            813 12.9    0.957    1.107    7.523    7.961
 transfer_pw2rs                     456 10.6    0.007    0.009    7.735    7.859
 xc_rho_set_and_dset_create          90 10.0    0.197    0.252    7.376    7.799
 gspace_mixing                       89  5.0    0.193    0.207    7.126    7.127
 mp_cart_create                     631  9.8    4.660    6.739    4.661    6.739
 dbt_pgrid_create_expert             84 10.8    0.000    0.000    4.625    6.702
 mp_waitall_1                     94786 12.0    5.565    6.688    5.565    6.688
 mp2_eri_3c_integrate                 1  7.0    0.026    0.039    2.281    6.520
 integrate_set_3c                 23196  8.0    2.042    5.893    2.256    6.487
 integrate_vhg0_rspace               91  8.0    0.888    0.985    6.136    6.204
 calc_pair_dist_radii                 1 10.0    2.006    2.051    5.830    5.968
 dbt_total                            8  8.0    0.000    0.000    5.940    5.940
 dbt_contract                         4  9.0    0.001    0.001    5.163    5.641
 mp_sum_l                          1061  6.4    4.157    5.628    4.157    5.628
 integrate_four_center_load          91 10.0    0.000    0.001    4.125    5.584
 hfx_load_balance                     1 11.0    0.000    0.000    4.125    5.584
 hfx_load_balance_range               1 12.0    0.000    0.002    4.085    5.543
 mp_sum_dm                         3644  7.6    5.309    5.489    5.309    5.489
 broyden_mixing                      89  6.0    4.924    5.045    5.114    5.186
 cp_fm_syrk                           2  8.5    4.843    5.030    4.843    5.030
 dbt_tas_multiply                     8 11.5    0.000    0.000    4.616    4.616
 dbt_tas_total                        8 12.5    0.003    0.005    4.615    4.615
 put_rho0_on_grid                    91  9.0    0.211    0.279    4.379    4.446
 create_B                             1  8.0    0.001    0.005    4.375    4.437
 transfer_pw2rs_250                 183 11.0    1.312    1.544    4.051    4.371
 rpa_num_int_RPA_matrix_operati     100  7.0    0.001    0.003    4.170    4.171
 calc_mat_Q                         100  8.0    0.000    0.001    3.584    3.608
 contract_S_to_Q                    100  9.0    0.001    0.001    3.566    3.591
 qs_energies_init_hamiltonians        1  3.0    0.000    0.000    3.126    3.126
 build_core_hamiltonian_matrix        1  4.0    0.000    0.000    3.113    3.113
 overlap_condnum                      1  5.0    0.000    0.001    3.097    3.111
 mp_isendrecv_dv                  78260 12.0    1.087    2.960    1.087    2.960
 create_A                             1  8.0    0.005    0.008    2.899    2.951
 arnoldi_conjugate_gradient           5  6.0    0.059    0.073    2.857    2.857
 integrate_four_center_getP          91 10.0    0.126    0.163    2.651    2.668
 mp_alltoall_d45                     92 10.0    1.783    2.666    1.783    2.666
 dbt_tas_dbm                          8 13.5    0.000    0.000    2.523    2.523
 calculate_rho_atom_coeff            91  6.0    0.084    0.192    2.514    2.515
 integrate_four_center_dist_KS       91 10.0    0.077    0.084    2.493    2.499
 dbm_multiply                         8 15.5    2.126    2.392    2.126    2.392
 dbt_tas_mm_1N                        6 14.5    0.000    0.000    2.113    2.379
 mp_waitall_2                        50 15.7    0.466    2.260    0.466    2.260
 transfer_pw2rs_30                   91 12.0    0.835    0.897    1.884    2.015
 transfer_rs2pw_30                   91  9.0    0.861    0.902    1.965    2.010
 dbt_tas_replicate                    8 13.5    0.173    0.211    0.589    1.938
 dbcsr_sym_matrix_vector_mult      8715  7.0    0.137    0.152    1.498    1.872
 calculate_rho0_atom                364  9.0    1.579    1.681    1.579    1.681
 xc_functional_eval                 630 10.9    0.001    0.002    1.235    1.676
 pbe_lda_eval                       630 11.9    1.234    1.674    1.234    1.674
 dbt_tas_communicate_buffer          17 15.8    0.005    0.006    0.317    1.657
 dbt_tas_replicate_communicate_       6 14.5    0.000    0.000    0.308    1.649
 mp_sendrecv_dv                   39130 10.0    1.494    1.552    1.494    1.552
 create_qs_kind_set                   1  2.0    0.000    0.000    1.542    1.544
 read_qs_kind                         4  3.0    0.856    0.910    1.542    1.544
 pw_scatter_p                       995 12.1    1.298    1.470    1.298    1.470
 compute_vec_Sigma_x_minus_vxc_       1  4.0    0.000    0.000    1.452    1.452
 transfer_rs2pw_90                   91  9.0    0.281    0.360    1.188    1.442
 cp_fm_to_fm_submat_general         112 10.1    0.988    1.437    0.988    1.437
 rs_grid_zero                       457 11.2    1.302    1.339    1.302    1.339
 transfer_pw2rs_90                   91 12.0    0.270    0.311    1.203    1.331
 fm_general_add_bse                   5 10.2    0.000    0.000    1.202    1.301
 Vh_1c_gg_integrals                  91  8.0    0.034    1.056    1.093    1.299
 cp2k_distribution_to_z_slices       91  9.0    0.419    0.463    1.016    1.233
 create_integ_mat                     4  6.0    0.007    0.010    1.019    1.164
 pw_gather_p                        907 11.8    1.002    1.156    1.002    1.156
 array2fm                             4  7.0    0.000    0.000    0.857    1.152
 dbt_copy                            12 10.1    0.001    0.001    0.632    1.094
 dbt_tas_estimate_result_nze          4 12.0    0.016    0.024    1.092    1.092
 fft_wrap_pw1pw2_90                 182 10.5    0.028    0.046    0.957    1.089
 pw_derive                          813 11.3    0.895    0.974    0.895    0.974
 dbcsr_multiply_generic             135  8.1    0.008    0.009    0.788    0.892
 dbcsr_rep_row_to_rep_col_vec      8715  8.0    0.046    0.065    0.317    0.855
 cp_fm_cholesky_invert              101  8.0    0.790    0.845    0.790    0.845
 dbt_reshape                          8 11.6    0.109    0.128    0.360    0.834
 calculate_dm_sparse                 90  6.0    0.001    0.001    0.723    0.780
 cp_dbcsr_plus_fm_fm_t               90  7.0    0.002    0.002    0.721    0.778
 dbcsr_add_d                      13148  7.0    0.012    0.014    0.110    0.777
 dbcsr_add_anytype                13148  8.0    0.015    0.101    0.098    0.764
 pw_poisson_rebuild                  91  9.0    0.000    0.000    0.737    0.761
 ps_wavelet_create                    1 10.0    0.000    0.000    0.737    0.761
 RS_z_slice_distribution              1 11.0    0.499    0.715    0.737    0.761
 pw_copy                           1360 10.6    0.695    0.757    0.695    0.757
 copy_dbcsr_to_fm                   121  6.5    0.003    0.003    0.678    0.708
 parser_read_line                181630  4.0    0.063    0.070    0.686    0.705
 mp_bcast_dv                       8811  9.0    0.343    0.689    0.343    0.689
 dbcsr_complete_redistribute        305  8.4    0.066    0.084    0.659    0.682
 dbt_communicate_buffer               8 12.6    0.003    0.003    0.193    0.671
 parser_read_line_low               200  5.0    0.056    0.264    0.624    0.644
 cp_fm_uplo_to_full                 103  8.0    0.436    0.643    0.436    0.643
 dbcsr_col_vec_to_rep_row          8715  8.0    0.062    0.083    0.423    0.640
 cp_fm_cholesky_decompose           102  9.0    0.598    0.639    0.598    0.639
 transfer_rs2pw_10                   91  9.0    0.219    0.236    0.609    0.622
 broadcast_input_information        200  6.0    0.142    0.163    0.568    0.612
 transfer_pw2rs_10                   91 12.0    0.217    0.255    0.589    0.610
 abc_contract                     23196  9.0    0.214    0.607    0.214    0.607
 mp_irecv_dm3                      3288 11.5    0.234    0.586    0.234    0.586
 pw_poisson_set                      92  8.9    0.002    0.003    0.543    0.558
 cp_fm_redistribute_start            96  8.0    0.242    0.377    0.375    0.553
 compute_Erpa_by_freq_int           100  8.0    0.002    0.005    0.541    0.541
 multiply_cannon                    135  9.1    0.017    0.018    0.434    0.531
 init_scf_run                         1  3.0    0.000    0.001    0.530    0.530
 array2fm_info                        4  8.0    0.378    0.504    0.399    0.516
 dbcsr_finalize                   15107 10.6    0.016    0.159    0.086    0.488
 multiply_cannon_loop               135 10.1    0.023    0.032    0.391    0.483
 update_ks_atom                      91  8.0    0.062    0.167    0.371    0.474
 mp_isend_dm3                      3288 11.5    0.214    0.450    0.214    0.450
 cp_fm_symm                          91  7.0    0.430    0.443    0.430    0.443
 mp_max_i                           637  3.1    0.214    0.442    0.214    0.442
 pw_integral_ab_c1d_c1d_gs           91  9.0    0.295    0.299    0.405    0.441
 pw_copy_to_array                   907 11.8    0.372    0.439    0.372    0.439
 array2fm_fill                        4  8.0    0.118    0.203    0.210    0.429
 dbcsr_desymmetrize_deep            123  7.4    0.016    0.021    0.400    0.422
 scf_env_initial_rho_setup            1  4.0    0.000    0.000    0.401    0.401
 mp_alltoall_z11v                   364 13.5    0.377    0.391    0.377    0.391
 pw_copy_from_array                 995 12.1    0.301    0.391    0.301    0.391
 fft_wrap_pw1pw2_30                 182 10.5    0.005    0.006    0.375    0.389
 pw_axpy                            905  9.3    0.329    0.381    0.329    0.381
 dbt_remap                            8 10.0    0.002    0.002    0.371    0.371
 copy_fm_to_dbcsr                   184  8.0    0.001    0.001    0.352    0.369
 mp2_main_alloc_hfx                   1  4.0    0.149    0.368    0.149    0.368
 mp_sum_i                            21  9.7    0.221    0.365    0.221    0.365
 hybrid_alltoall_any                393 10.9    0.124    0.142    0.340    0.364
 restraint_control                    1  2.0    0.000    0.000    0.220    0.364
 mp_sum_iv                          359  9.5    0.226    0.361    0.226    0.361
 dbcsr_sym_matrix_vector_mult_l    8715  8.0    0.061    0.336    0.088    0.359
 qs_init_subsys                       1  2.0    0.007    0.008    0.358    0.358
 mp_isend_dv                      30551 12.1    0.219    0.354    0.219    0.354
 multiply_cannon_multrec           3460 11.1    0.221    0.328    0.223    0.330
 make_m2s                           270  9.1    0.007    0.008    0.297    0.323
 mp_bcast_dm                       2366  9.0    0.309    0.319    0.309    0.319
 dbcsr_copy                       35708  7.5    0.132    0.225    0.210    0.304
 fm_general_add_bse_1_setup           5 11.2    0.272    0.300    0.272    0.300
 qs_env_setup                         1  3.0    0.000    0.000    0.279    0.295
 mult_B_with_W                        1  8.0    0.000    0.000    0.254    0.295
 qs_env_rebuild_pw_env                2  3.5    0.000    0.000    0.278    0.293
 pw_env_rebuild                       1  5.0    0.001    0.001    0.278    0.293
 dbt_split_blocks_generic            20  8.8    0.106    0.116    0.276    0.289
 rs_scatter_matrices                 91  7.0    0.001    0.004    0.277    0.288
 mp_wait                            158  9.0    0.092    0.288    0.092    0.288
 fm_general_add_bse_4_buf_from_       1 10.0    0.238    0.285    0.238    0.285
 fm_general_add_bse_4_buf_from_       1 10.0    0.265    0.276    0.265    0.276
 mp_bcast_i_src                     800  7.0    0.178    0.272    0.178    0.272
 mp_bcast_am_src                    200  7.0    0.196    0.229    0.231    0.268
 make_images                        270 10.1    0.036    0.043    0.239    0.264
 yz_to_xz                           182 14.0    0.016    0.019    0.233    0.246
 dbcsr_merge_all                  14044 11.2    0.019    0.177    0.061    0.246
 allocate_matrices_gw                 1  7.0    0.001    0.002    0.157    0.238
 ao_to_mo_and_store_B_mult_gw_1       5  7.0    0.000    0.000    0.177    0.238
 dbcsr_iterator_start            103878  8.7    0.118    0.186    0.139    0.234
 get_vec_sigma_x                      1  8.0    0.000    0.001    0.148    0.232
 mp_alltoall_i11v                  1038  9.3    0.229    0.231    0.229    0.231
 ao_to_mo_and_store_B_mult_bse_       5  7.0    0.000    0.000    0.159    0.229
 array2fm_waitall                     4  8.0    0.000    0.000    0.024    0.227
 fm_general_add_bse_5_comm_buff       5 11.2    0.000    0.000    0.150    0.217
 communicate_buffer                   5 12.2    0.001    0.001    0.150    0.217
 array2fm_buffer_send                 4  8.0    0.186    0.208    0.186    0.208
 dbm_reserve_blocks                  68 14.1    0.188    0.206    0.188    0.206
 pw_zero                            542 10.3    0.176    0.203    0.176    0.203
 fft_wrap_pw1pw2_10                 182 10.5    0.002    0.002    0.197    0.200
 mp_alltoall_i22                    428  9.1    0.156    0.195    0.156    0.195
 dbt_nd_mp_comm                       8 11.0    0.000    0.000    0.176    0.192
 cp_fm_create                       449  7.8    0.134    0.184    0.134    0.184
 pw_grid_setup                        4  6.0    0.000    0.000    0.167    0.182
 pw_grid_setup_internal               4  7.0    0.003    0.004    0.167    0.182
 xz_to_yz                           182 11.0    0.011    0.013    0.171    0.173
 vxc_of_r_new                       540  9.0    0.001    0.025    0.003    0.169
 postprocess_bse                      1  9.0    0.000    0.000    0.136    0.166
 make_images_data                   270 11.1    0.004    0.004    0.138    0.165
 dbt_tas_reserve_blocks_index        60 13.0    0.004    0.004    0.145    0.164
 dbt_split_copyback                   4 10.0    0.116    0.127    0.149    0.162
 mp_rank_compare                   1902 12.9    0.155    0.161    0.155    0.161
 create_fast_col_vec_access       17430  8.0    0.071    0.118    0.109    0.157
 create_fast_row_vec_access       17430  8.0    0.071    0.113    0.110    0.151
 dbcsr_iterator_stop             103878  8.7    0.089    0.125    0.107    0.149
 truncate_BSE_matrices                1  8.0    0.000    0.000    0.099    0.143
 dbt_reserve_blocks_index            36 10.8    0.005    0.006    0.128    0.143
 multiply_cannon_metrocomm3        3460 11.1    0.006    0.006    0.051    0.139
 ao_to_mo_and_store_B_E_Ex_gw_1       5  7.0    0.047    0.056    0.124    0.138
 dbt_distribution_new_expert         76 10.1    0.001    0.002    0.118    0.136
 fm_general_add_bse_3_alloc_buf       5 11.2    0.090    0.133    0.090    0.133
 fm_general_add_bse_6_buffer_to       1 10.0    0.096    0.132    0.096    0.132
 dbt_reserve_blocks_index_array      28 10.6    0.000    0.000    0.116    0.130
 mp_alltoall_i                       40 13.9    0.080    0.127    0.080    0.127
 ao_to_mo_and_store_B_E_Ex_bse_       5  7.0    0.043    0.051    0.111    0.125
 -------------------------------------------------------------------------------

 The number of warnings for this run is : 2
 
 -------------------------------------------------------------------------------
  **** **** ******  **  PROGRAM ENDED AT                 2025-03-11 13:28:05.633
 ***** ** ***  *** **   PROGRAM RAN ON                              i06r01c03s08
 **    ****   ******    PROGRAM RAN BY                                   di38fab
 ***** **    ** ** **   PROGRAM PROCESS ID                               1222077
  **** **  *******  **  PROGRAM STOPPED IN /hppfs/scratch/04/di38fab/05_MOL/aUKB
                                           qsEOTmq69kFe5R_nOg/5k_set_final_qzvp/
                                           HYXBUR10/aug-cc-pVQZ
