 DBCSR| CPU Multiplication driver                                           BLAS (U)
 DBCSR| Multrec recursion limit                                              512 (U)
 DBCSR| Multiplication stack size                                           1000 (D)
 DBCSR| Maximum elements for images                                    UNLIMITED (U)
 DBCSR| Multiplicative factor virtual images                                   1 (U)
 DBCSR| Use multiplication densification                                       T (D)
 DBCSR| Multiplication size stacks                                             3 (U)
 DBCSR| Use memory pool for CPU allocation                                     F (U)
 DBCSR| Number of 3D layers                                               SINGLE (U)
 DBCSR| Use MPI memory allocation                                              F (U)
 DBCSR| Use RMA algorithm                                                      F (U)
 DBCSR| Use Communication thread                                               T (U)
 DBCSR| Communication thread load                                             75 (D)
 DBCSR| MPI: My process id                                                     0
 DBCSR| MPI: Number of processes                                              48
 DBCSR| OMP: Current number of threads                                         4
 DBCSR| OMP: Max number of threads                                             4
 DBCSR| Split modifier for TAS multiplication algorithm                  1.0E+00 (U)


  **** **** ******  **  PROGRAM STARTED AT               2025-03-26 05:22:26.193
 ***** ** ***  *** **   PROGRAM STARTED ON                          i05r08c06s09
 **    ****   ******    PROGRAM STARTED BY                               di38fab
 ***** **    ** ** **   PROGRAM PROCESS ID                               3343626
  **** **  *******  **  PROGRAM STARTED IN /hppfs/scratch/04/di38fab/05_MOL/W4-1
                                           1+ALK/h2o/TZVP/GW+BSE/1e-4

 CP2K| version string:                 CP2K version 2025.1 (Development Version)
 CP2K| source code revision number:                                  git:d2e611a
 CP2K| cp2kflags: omp libint fftw3 libxc parallel scalapack max_contr=4         
 CP2K| is freely available from                            https://www.cp2k.org/
 CP2K| Program compiled at                       Thu 06 Mar 2025 05:09:20 PM CET
 CP2K| Program compiled on                                               login02
 CP2K| Program compiled for                                        Supermuc-foss
 CP2K| Data directory path                  /hppfs/work/pn36zo/di38fab/cp2k/data
 CP2K| Input file name                                                    GW.inp

 GLOBAL| Force Environment number                                              1
 GLOBAL| Basis set file name            /hppfs/scratch/04/di38fab/04_TMD/BASIS_A
 GLOBAL| Potential file name            /hppfs/work/pn36zo/di38fab/cp2k/data/ALL
 GLOBAL| MM Potential file name                                     MM_POTENTIAL
 GLOBAL| Coordinate file name                                      __STD_INPUT__
 GLOBAL| Method name                                                        CP2K
 GLOBAL| Project name                                                       MoS2
 GLOBAL| Run type                                                         ENERGY
 GLOBAL| FFT library                                                       FFTW3
 GLOBAL| Diagonalization library                                       ScaLAPACK
 GLOBAL| DGEMM library                                                      BLAS
 GLOBAL| Orthonormality check for eigenvectors                          DISABLED
 GLOBAL| Matrix multiplication library                                 ScaLAPACK
 GLOBAL| All-to-all communication in single precision                          F
 GLOBAL| FFTs using library dependent lengths                                  F
 GLOBAL| Grid backend                                                       AUTO
 GLOBAL| Global print level                                               MEDIUM
 GLOBAL| MPI I/O enabled                                                       T
 GLOBAL| Total number of message passing processes                            48
 GLOBAL| Number of threads for this process                                    4
 GLOBAL| This output is from process                                           0
 GLOBAL| OpenMP stack size per thread (OMP_STACKSIZE)                    default
 GLOBAL| CPU model name             Intel(R) Xeon(R) Platinum 8174 CPU @ 3.10GHz

 MEMORY| system memory details [Kb]
 MEMORY|                        rank 0           min           max       average
 MEMORY| MemTotal             98436664      98436664      98436664      98436664
 MEMORY| MemFree              83948500      83805084      83948500      83893092
 MEMORY| Buffers                     0             0             0             0
 MEMORY| Cached                2409756       2401616       2409756       2407324
 MEMORY| Slab                  1232284       1229332       1245396       1234634
 MEMORY| SReclaimable           274088        273364        280704        275816
 MEMORY| MemLikelyFree        86632344      86487404      86632344      86576232


 *** Fundamental physical constants (SI units) ***

 *** Literature: B. J. Mohr and B. N. Taylor,
 ***             CODATA recommended values of the fundamental physical
 ***             constants: 2006, Web Version 5.1
 ***             http://physics.nist.gov/constants

 Speed of light in vacuum [m/s]                             2.99792458000000E+08
 Magnetic constant or permeability of vacuum [N/A**2]       1.25663706143592E-06
 Electric constant or permittivity of vacuum [F/m]          8.85418781762039E-12
 Planck constant (h) [J*s]                                  6.62606896000000E-34
 Planck constant (h-bar) [J*s]                              1.05457162825177E-34
 Elementary charge [C]                                      1.60217648700000E-19
 Electron mass [kg]                                         9.10938215000000E-31
 Electron g factor [ ]                                     -2.00231930436220E+00
 Proton mass [kg]                                           1.67262163700000E-27
 Fine-structure constant                                    7.29735253760000E-03
 Rydberg constant [1/m]                                     1.09737315685270E+07
 Avogadro constant [1/mol]                                  6.02214179000000E+23
 Boltzmann constant [J/K]                                   1.38065040000000E-23
 Atomic mass unit [kg]                                      1.66053878200000E-27
 Bohr radius [m]                                            5.29177208590000E-11

 *** Conversion factors ***

 [u] -> [a.u.]                                              1.82288848426455E+03
 [Angstrom] -> [Bohr] = [a.u.]                              1.88972613288564E+00
 [a.u.] = [Bohr] -> [Angstrom]                              5.29177208590000E-01
 [a.u.] -> [s]                                              2.41888432650478E-17
 [a.u.] -> [fs]                                             2.41888432650478E-02
 [a.u.] -> [J]                                              4.35974393937059E-18
 [a.u.] -> [N]                                              8.23872205491840E-08
 [a.u.] -> [K]                                              3.15774647902944E+05
 [a.u.] -> [kJ/mol]                                         2.62549961709828E+03
 [a.u.] -> [kcal/mol]                                       6.27509468713739E+02
 [a.u.] -> [Pa]                                             2.94210107994716E+13
 [a.u.] -> [bar]                                            2.94210107994716E+08
 [a.u.] -> [atm]                                            2.90362800883016E+08
 [a.u.] -> [eV]                                             2.72113838565563E+01
 [a.u.] -> [Hz]                                             6.57968392072181E+15
 [a.u.] -> [1/cm] (wave numbers)                            2.19474631370540E+05
 [a.u./Bohr**2] -> [1/cm]                                   5.14048714338585E+03
 

 CELL_TOP| Volume [angstrom^3]:                                     27000.000000
 CELL_TOP| Vector a [angstrom    30.000     0.000     0.000   |a| =    30.000000
 CELL_TOP| Vector b [angstrom     0.000    30.000     0.000   |b| =    30.000000
 CELL_TOP| Vector c [angstrom     0.000     0.000    30.000   |c| =    30.000000
 CELL_TOP| Angle (b,c), alpha [degree]:                                90.000000
 CELL_TOP| Angle (a,c), beta  [degree]:                                90.000000
 CELL_TOP| Angle (a,b), gamma [degree]:                                90.000000
 CELL_TOP| Numerically orthorhombic:                                         YES
 CELL_TOP| Periodicity                                                      NONE

 GENERATE|  Preliminary Number of Bonds generated:                             0
 GENERATE|  Achieved consistency in connectivity generation.

 CELL| Volume [angstrom^3]:                                         27000.000000
 CELL| Vector a [angstrom]:      30.000     0.000     0.000   |a| =    30.000000
 CELL| Vector b [angstrom]:       0.000    30.000     0.000   |b| =    30.000000
 CELL| Vector c [angstrom]:       0.000     0.000    30.000   |c| =    30.000000
 CELL| Angle (b,c), alpha [degree]:                                    90.000000
 CELL| Angle (a,c), beta  [degree]:                                    90.000000
 CELL| Angle (a,b), gamma [degree]:                                    90.000000
 CELL| Numerically orthorhombic:                                             YES
 CELL| Periodicity                                                          NONE

 CELL_REF| Volume [angstrom^3]:                                     27000.000000
 CELL_REF| Vector a [angstrom    30.000     0.000     0.000   |a| =    30.000000
 CELL_REF| Vector b [angstrom     0.000    30.000     0.000   |b| =    30.000000
 CELL_REF| Vector c [angstrom     0.000     0.000    30.000   |c| =    30.000000
 CELL_REF| Angle (b,c), alpha [degree]:                                90.000000
 CELL_REF| Angle (a,c), beta  [degree]:                                90.000000
 CELL_REF| Angle (a,b), gamma [degree]:                                90.000000
 CELL_REF| Numerically orthorhombic:                                         YES
 CELL_REF| Periodicity                                                      NONE

 *******************************************************************************
 *******************************************************************************
 **                                                                           **
 **     #####                         ##              ##                      **
 **    ##   ##            ##          ##              ##                      **
 **   ##     ##                       ##            ######                    **
 **   ##     ##  ##   ##  ##   #####  ##  ##   ####   ##    #####    #####    **
 **   ##     ##  ##   ##  ##  ##      ## ##   ##      ##   ##   ##  ##   ##   **
 **   ##  ## ##  ##   ##  ##  ##      ####     ###    ##   ######   ######    **
 **    ##  ###   ##   ##  ##  ##      ## ##      ##   ##   ##       ##        **
 **     #######   #####   ##   #####  ##  ##  ####    ##    #####   ##        **
 **           ##                                                    ##        **
 **                                                                           **
 **                                                ... make the atoms dance   **
 **                                                                           **
 **            Copyright (C) by CP2K developers group (2000-2025)             **
 **                      J. Chem. Phys. 152, 194103 (2020)                    **
 **                                                                           **
 *******************************************************************************

 DFT| Spin restricted Kohn-Sham (RKS) calculation                            RKS
 DFT| Multiplicity                                                             1
 DFT| Number of spin states                                                    1
 DFT| Charge                                                                   0
 DFT| Self-interaction correction (SIC)                                       NO
 DFT| Cutoffs: density                                              1.000000E-10
 DFT|          gradient                                             1.000000E-10
 DFT|          tau                                                  1.000000E-10
 DFT|          cutoff_smoothing_range                               0.000000E+00
 DFT| XC density smoothing                                                  NONE
 DFT| XC derivatives                                                          PW

 FUNCTIONAL| PBE:
 FUNCTIONAL| J.P.Perdew, K.Burke, M.Ernzerhof, Phys. Rev. Letter, vol. 77, n 18,
 FUNCTIONAL|  pp. 3865-3868, (1996)sx=0.750sc=1.000{spin unpolarized}           


 QS| Method:                                                                GAPW
 QS| Density plane wave grid type                        NON-SPHERICAL FULLSPACE
 QS| Number of grid levels:                                                    4
 QS| Density cutoff [a.u.]:                                                250.0
 QS| Multi grid cutoff [a.u.]: 1) grid level                               250.0
 QS|                           2) grid level                                83.3
 QS|                           3) grid level                                27.8
 QS|                           4) grid level                                 9.3
 QS| Grid level progression factor:                                          3.0
 QS| Relative density cutoff [a.u.]:                                        50.0
 QS| Interaction thresholds: eps_pgf_orb:                                1.0E-12
 QS|                         eps_filter_matrix:                          0.0E+00
 QS|                         eps_core_charge:                            1.0E-14
 QS|                         eps_rho_gspace:                             1.0E-12
 QS|                         eps_rho_rspace:                             1.0E-12
 QS|                         eps_gvg_rspace:                             1.0E-06
 QS|                         eps_ppl:                                    1.0E-02
 QS|                         eps_ppnl:                                   1.0E-08
 QS| GAPW|      One center basis from orbital basis primitives
 QS| GAPW|                   eps_fit:                                    1.0E-04
 QS| GAPW|                   eps_iso:                                    1.0E-12
 QS| GAPW|                   eps_svd:                                    1.0E-08
 QS| GAPW|                   eps_cpc:                                    1.0E-12
 QS| GAPW|   atom-r-grid: quadrature:                                     GC_LOG
 QS| GAPW|      atom-s-grid:  max l :                                          8
 QS| GAPW|      max_l_rho0 :                                                   2


 ATOMIC KIND INFORMATION

  1. Atomic kind: O                                     Number of atoms:       1

     Orbital Basis Set                                        aug-TZVP-MOLOPT-ae

       Number of orbital shell sets:                                           2
       Number of orbital shells:                                              16
       Number of primitive Cartesian functions:                               13
       Number of Cartesian basis functions:                                   71
       Number of spherical basis functions:                                   56
       Norm type:                                                              2

       Normalised Cartesian orbitals:

                        Set   Shell   Orbital            Exponent    Coefficient

                          1       1    1s                0.050000       0.000000
                                                         0.148931       0.008771
                                                         0.454433       0.026241
                                                         1.335408       0.005818
                                                         4.395399       0.718493
                                                        12.309450       2.903007
                                                        62.914956       1.320675

                          1       2    2s                0.050000       0.000000
                                                         0.148931       0.036066
                                                         0.454433       0.073646
                                                         1.335408       0.667362
                                                         4.395399      -0.111917
                                                        12.309450      -0.053902
                                                        62.914956      -0.747743

                          1       3    3s                0.050000       0.000000
                                                         0.148931       0.072341
                                                         0.454433       0.339134
                                                         1.335408      -0.296204
                                                         4.395399      -0.066370
                                                        12.309450      -0.509964
                                                        62.914956       0.182030

                          1       4    4s                0.050000       0.000000
                                                         0.148931       0.257390
                                                         0.454433      -0.327789
                                                         1.335408      -0.186757
                                                         4.395399      -0.014958
                                                        12.309450      -0.201401
                                                        62.914956       1.590188

                          1       5    5s                0.050000       0.095896
                                                         0.148931      -0.062439
                                                         0.454433       0.011784
                                                         1.335408      -0.100924
                                                         4.395399       0.000000
                                                        12.309450       0.000000
                                                        62.914956       0.000000

                          1       6    2px               0.050000       0.000000
                                                         0.148931       0.002211
                                                         0.454433      -0.015509
                                                         1.335408       1.487193
                                                         4.395399       2.867225
                                                        12.309450       3.872733
                                                        62.914956     -23.794765
                          1       6    2py               0.050000       0.000000
                                                         0.148931       0.002211
                                                         0.454433      -0.015509
                                                         1.335408       1.487193
                                                         4.395399       2.867225
                                                        12.309450       3.872733
                                                        62.914956     -23.794765
                          1       6    2pz               0.050000       0.000000
                                                         0.148931       0.002211
                                                         0.454433      -0.015509
                                                         1.335408       1.487193
                                                         4.395399       2.867225
                                                        12.309450       3.872733
                                                        62.914956     -23.794765

                          1       7    3px               0.050000       0.000000
                                                         0.148931       0.008518
                                                         0.454433       0.481961
                                                         1.335408       0.085170
                                                         4.395399       0.441215
                                                        12.309450      -1.837950
                                                        62.914956      36.698597
                          1       7    3py               0.050000       0.000000
                                                         0.148931       0.008518
                                                         0.454433       0.481961
                                                         1.335408       0.085170
                                                         4.395399       0.441215
                                                        12.309450      -1.837950
                                                        62.914956      36.698597
                          1       7    3pz               0.050000       0.000000
                                                         0.148931       0.008518
                                                         0.454433       0.481961
                                                         1.335408       0.085170
                                                         4.395399       0.441215
                                                        12.309450      -1.837950
                                                        62.914956      36.698597

                          1       8    4px               0.050000       0.000000
                                                         0.148931       0.138320
                                                         0.454433      -0.034294
                                                         1.335408      -0.042535
                                                         4.395399      -0.295522
                                                        12.309450       0.600610
                                                        62.914956     -10.152534
                          1       8    4py               0.050000       0.000000
                                                         0.148931       0.138320
                                                         0.454433      -0.034294
                                                         1.335408      -0.042535
                                                         4.395399      -0.295522
                                                        12.309450       0.600610
                                                        62.914956     -10.152534
                          1       8    4pz               0.050000       0.000000
                                                         0.148931       0.138320
                                                         0.454433      -0.034294
                                                         1.335408      -0.042535
                                                         4.395399      -0.295522
                                                        12.309450       0.600610
                                                        62.914956     -10.152534

                          1       9    5px               0.050000      -0.000964
                                                         0.148931       0.027417
                                                         0.454433       0.328542
                                                         1.335408       0.651611
                                                         4.395399       0.000000
                                                        12.309450       0.000000
                                                        62.914956       0.000000
                          1       9    5py               0.050000      -0.000964
                                                         0.148931       0.027417
                                                         0.454433       0.328542
                                                         1.335408       0.651611
                                                         4.395399       0.000000
                                                        12.309450       0.000000
                                                        62.914956       0.000000
                          1       9    5pz               0.050000      -0.000964
                                                         0.148931       0.027417
                                                         0.454433       0.328542
                                                         1.335408       0.651611
                                                         4.395399       0.000000
                                                        12.309450       0.000000
                                                        62.914956       0.000000

                          1      10    3dx2              0.050000       0.000000
                                                         0.148931       0.011799
                                                         0.454433       0.037044
                                                         1.335408       1.177796
                                                         4.395399      13.187048
                                                        12.309450      -3.718320
                                                        62.914956     245.407483
                          1      10    3dxy              0.050000       0.000000
                                                         0.148931       0.020436
                                                         0.454433       0.064161
                                                         1.335408       2.040003
                                                         4.395399      22.840637
                                                        12.309450      -6.440319
                                                        62.914956     425.058229
                          1      10    3dxz              0.050000       0.000000
                                                         0.148931       0.020436
                                                         0.454433       0.064161
                                                         1.335408       2.040003
                                                         4.395399      22.840637
                                                        12.309450      -6.440319
                                                        62.914956     425.058229
                          1      10    3dy2              0.050000       0.000000
                                                         0.148931       0.011799
                                                         0.454433       0.037044
                                                         1.335408       1.177796
                                                         4.395399      13.187048
                                                        12.309450      -3.718320
                                                        62.914956     245.407483
                          1      10    3dyz              0.050000       0.000000
                                                         0.148931       0.020436
                                                         0.454433       0.064161
                                                         1.335408       2.040003
                                                         4.395399      22.840637
                                                        12.309450      -6.440319
                                                        62.914956     425.058229
                          1      10    3dz2              0.050000       0.000000
                                                         0.148931       0.011799
                                                         0.454433       0.037044
                                                         1.335408       1.177796
                                                         4.395399      13.187048
                                                        12.309450      -3.718320
                                                        62.914956     245.407483

                          1      11    4dx2              0.050000       0.000000
                                                         0.148931      -0.006399
                                                         0.454433       0.341143
                                                         1.335408       1.062793
                                                         4.395399      -7.656182
                                                        12.309450       6.262545
                                                        62.914956    -198.939864
                          1      11    4dxy              0.050000       0.000000
                                                         0.148931      -0.011084
                                                         0.454433       0.590877
                                                         1.335408       1.840811
                                                         4.395399     -13.260897
                                                        12.309450      10.847045
                                                        62.914956    -344.573952
                          1      11    4dxz              0.050000       0.000000
                                                         0.148931      -0.011084
                                                         0.454433       0.590877
                                                         1.335408       1.840811
                                                         4.395399     -13.260897
                                                        12.309450      10.847045
                                                        62.914956    -344.573952
                          1      11    4dy2              0.050000       0.000000
                                                         0.148931      -0.006399
                                                         0.454433       0.341143
                                                         1.335408       1.062793
                                                         4.395399      -7.656182
                                                        12.309450       6.262545
                                                        62.914956    -198.939864
                          1      11    4dyz              0.050000       0.000000
                                                         0.148931      -0.011084
                                                         0.454433       0.590877
                                                         1.335408       1.840811
                                                         4.395399     -13.260897
                                                        12.309450      10.847045
                                                        62.914956    -344.573952
                          1      11    4dz2              0.050000       0.000000
                                                         0.148931      -0.006399
                                                         0.454433       0.341143
                                                         1.335408       1.062793
                                                         4.395399      -7.656182
                                                        12.309450       6.262545
                                                        62.914956    -198.939864

                          1      12    5dx2              0.050000      -0.000167
                                                         0.148931       0.000910
                                                         0.454433       0.391605
                                                         1.335408       0.205296
                                                         4.395399       0.000000
                                                        12.309450       0.000000
                                                        62.914956       0.000000
                          1      12    5dxy              0.050000      -0.000290
                                                         0.148931       0.001577
                                                         0.454433       0.678279
                                                         1.335408       0.355584
                                                         4.395399       0.000000
                                                        12.309450       0.000000
                                                        62.914956       0.000000
                          1      12    5dxz              0.050000      -0.000290
                                                         0.148931       0.001577
                                                         0.454433       0.678279
                                                         1.335408       0.355584
                                                         4.395399       0.000000
                                                        12.309450       0.000000
                                                        62.914956       0.000000
                          1      12    5dy2              0.050000      -0.000167
                                                         0.148931       0.000910
                                                         0.454433       0.391605
                                                         1.335408       0.205296
                                                         4.395399       0.000000
                                                        12.309450       0.000000
                                                        62.914956       0.000000
                          1      12    5dyz              0.050000      -0.000290
                                                         0.148931       0.001577
                                                         0.454433       0.678279
                                                         1.335408       0.355584
                                                         4.395399       0.000000
                                                        12.309450       0.000000
                                                        62.914956       0.000000
                          1      12    5dz2              0.050000      -0.000167
                                                         0.148931       0.000910
                                                         0.454433       0.391605
                                                         1.335408       0.205296
                                                         4.395399       0.000000
                                                        12.309450       0.000000
                                                        62.914956       0.000000

                          1      13    4fx3              0.050000       0.000000
                                                         0.148931       0.001654
                                                         0.454433       0.066745
                                                         1.335408       2.406605
                                                         4.395399      -5.031344
                                                        12.309450      16.622131
                                                        62.914956       4.775823
                          1      13    4fx2y             0.050000       0.000000
                                                         0.148931       0.003699
                                                         0.454433       0.149247
                                                         1.335408       5.381333
                                                         4.395399     -11.250428
                                                        12.309450      37.168214
                                                        62.914956      10.679064
                          1      13    4fx2z             0.050000       0.000000
                                                         0.148931       0.003699
                                                         0.454433       0.149247
                                                         1.335408       5.381333
                                                         4.395399     -11.250428
                                                        12.309450      37.168214
                                                        62.914956      10.679064
                          1      13    4fxy2             0.050000       0.000000
                                                         0.148931       0.003699
                                                         0.454433       0.149247
                                                         1.335408       5.381333
                                                         4.395399     -11.250428
                                                        12.309450      37.168214
                                                        62.914956      10.679064
                          1      13    4fxyz             0.050000       0.000000
                                                         0.148931       0.006406
                                                         0.454433       0.258503
                                                         1.335408       9.320743
                                                         4.395399     -19.486313
                                                        12.309450      64.377235
                                                        62.914956      18.496681
                          1      13    4fxz2             0.050000       0.000000
                                                         0.148931       0.003699
                                                         0.454433       0.149247
                                                         1.335408       5.381333
                                                         4.395399     -11.250428
                                                        12.309450      37.168214
                                                        62.914956      10.679064
                          1      13    4fy3              0.050000       0.000000
                                                         0.148931       0.001654
                                                         0.454433       0.066745
                                                         1.335408       2.406605
                                                         4.395399      -5.031344
                                                        12.309450      16.622131
                                                        62.914956       4.775823
                          1      13    4fy2z             0.050000       0.000000
                                                         0.148931       0.003699
                                                         0.454433       0.149247
                                                         1.335408       5.381333
                                                         4.395399     -11.250428
                                                        12.309450      37.168214
                                                        62.914956      10.679064
                          1      13    4fyz2             0.050000       0.000000
                                                         0.148931       0.003699
                                                         0.454433       0.149247
                                                         1.335408       5.381333
                                                         4.395399     -11.250428
                                                        12.309450      37.168214
                                                        62.914956      10.679064
                          1      13    4fz3              0.050000       0.000000
                                                         0.148931       0.001654
                                                         0.454433       0.066745
                                                         1.335408       2.406605
                                                         4.395399      -5.031344
                                                        12.309450      16.622131
                                                        62.914956       4.775823

                          1      14    5fx3              0.050000      -0.000035
                                                         0.148931       0.000216
                                                         0.454433       0.256015
                                                         1.335408      -0.160820
                                                         4.395399       0.000000
                                                        12.309450       0.000000
                                                        62.914956       0.000000
                          1      14    5fx2y             0.050000      -0.000077
                                                         0.148931       0.000483
                                                         0.454433       0.572467
                                                         1.335408      -0.359605
                                                         4.395399       0.000000
                                                        12.309450       0.000000
                                                        62.914956       0.000000
                          1      14    5fx2z             0.050000      -0.000077
                                                         0.148931       0.000483
                                                         0.454433       0.572467
                                                         1.335408      -0.359605
                                                         4.395399       0.000000
                                                        12.309450       0.000000
                                                        62.914956       0.000000
                          1      14    5fxy2             0.050000      -0.000077
                                                         0.148931       0.000483
                                                         0.454433       0.572467
                                                         1.335408      -0.359605
                                                         4.395399       0.000000
                                                        12.309450       0.000000
                                                        62.914956       0.000000
                          1      14    5fxyz             0.050000      -0.000134
                                                         0.148931       0.000837
                                                         0.454433       0.991542
                                                         1.335408      -0.622854
                                                         4.395399       0.000000
                                                        12.309450       0.000000
                                                        62.914956       0.000000
                          1      14    5fxz2             0.050000      -0.000077
                                                         0.148931       0.000483
                                                         0.454433       0.572467
                                                         1.335408      -0.359605
                                                         4.395399       0.000000
                                                        12.309450       0.000000
                                                        62.914956       0.000000
                          1      14    5fy3              0.050000      -0.000035
                                                         0.148931       0.000216
                                                         0.454433       0.256015
                                                         1.335408      -0.160820
                                                         4.395399       0.000000
                                                        12.309450       0.000000
                                                        62.914956       0.000000
                          1      14    5fy2z             0.050000      -0.000077
                                                         0.148931       0.000483
                                                         0.454433       0.572467
                                                         1.335408      -0.359605
                                                         4.395399       0.000000
                                                        12.309450       0.000000
                                                        62.914956       0.000000
                          1      14    5fyz2             0.050000      -0.000077
                                                         0.148931       0.000483
                                                         0.454433       0.572467
                                                         1.335408      -0.359605
                                                         4.395399       0.000000
                                                        12.309450       0.000000
                                                        62.914956       0.000000
                          1      14    5fz3              0.050000      -0.000035
                                                         0.148931       0.000216
                                                         0.454433       0.256015
                                                         1.335408      -0.160820
                                                         4.395399       0.000000
                                                        12.309450       0.000000
                                                        62.914956       0.000000

                          1      15    5gx4              0.050000       0.000008
                                                         0.148931       0.000769
                                                         0.454433       0.118509
                                                         1.335408       0.001274
                                                         4.395399       0.000000
                                                        12.309450       0.000000
                                                        62.914956       0.000000
                          1      15    5gx3y             0.050000       0.000022
                                                         0.148931       0.002034
                                                         0.454433       0.313545
                                                         1.335408       0.003370
                                                         4.395399       0.000000
                                                        12.309450       0.000000
                                                        62.914956       0.000000
                          1      15    5gx3z             0.050000       0.000022
                                                         0.148931       0.002034
                                                         0.454433       0.313545
                                                         1.335408       0.003370
                                                         4.395399       0.000000
                                                        12.309450       0.000000
                                                        62.914956       0.000000
                          1      15    5gx2y2            0.050000       0.000029
                                                         0.148931       0.002626
                                                         0.454433       0.404785
                                                         1.335408       0.004351
                                                         4.395399       0.000000
                                                        12.309450       0.000000
                                                        62.914956       0.000000
                          1      15    5gx2yz            0.050000       0.000050
                                                         0.148931       0.004548
                                                         0.454433       0.701109
                                                         1.335408       0.007536
                                                         4.395399       0.000000
                                                        12.309450       0.000000
                                                        62.914956       0.000000
                          1      15    5gx2z2            0.050000       0.000029
                                                         0.148931       0.002626
                                                         0.454433       0.404785
                                                         1.335408       0.004351
                                                         4.395399       0.000000
                                                        12.309450       0.000000
                                                        62.914956       0.000000
                          1      15    5gxy3             0.050000       0.000022
                                                         0.148931       0.002034
                                                         0.454433       0.313545
                                                         1.335408       0.003370
                                                         4.395399       0.000000
                                                        12.309450       0.000000
                                                        62.914956       0.000000
                          1      15    5gxy2z            0.050000       0.000050
                                                         0.148931       0.004548
                                                         0.454433       0.701109
                                                         1.335408       0.007536
                                                         4.395399       0.000000
                                                        12.309450       0.000000
                                                        62.914956       0.000000
                          1      15    5gxyz2            0.050000       0.000050
                                                         0.148931       0.004548
                                                         0.454433       0.701109
                                                         1.335408       0.007536
                                                         4.395399       0.000000
                                                        12.309450       0.000000
                                                        62.914956       0.000000
                          1      15    5gxz3             0.050000       0.000022
                                                         0.148931       0.002034
                                                         0.454433       0.313545
                                                         1.335408       0.003370
                                                         4.395399       0.000000
                                                        12.309450       0.000000
                                                        62.914956       0.000000
                          1      15    5gy4              0.050000       0.000008
                                                         0.148931       0.000769
                                                         0.454433       0.118509
                                                         1.335408       0.001274
                                                         4.395399       0.000000
                                                        12.309450       0.000000
                                                        62.914956       0.000000
                          1      15    5gy3z             0.050000       0.000022
                                                         0.148931       0.002034
                                                         0.454433       0.313545
                                                         1.335408       0.003370
                                                         4.395399       0.000000
                                                        12.309450       0.000000
                                                        62.914956       0.000000
                          1      15    5gy2z2            0.050000       0.000029
                                                         0.148931       0.002626
                                                         0.454433       0.404785
                                                         1.335408       0.004351
                                                         4.395399       0.000000
                                                        12.309450       0.000000
                                                        62.914956       0.000000
                          1      15    5gyz3             0.050000       0.000022
                                                         0.148931       0.002034
                                                         0.454433       0.313545
                                                         1.335408       0.003370
                                                         4.395399       0.000000
                                                        12.309450       0.000000
                                                        62.914956       0.000000
                          1      15    5gz4              0.050000       0.000008
                                                         0.148931       0.000769
                                                         0.454433       0.118509
                                                         1.335408       0.001274
                                                         4.395399       0.000000
                                                        12.309450       0.000000
                                                        62.914956       0.000000

                          2       1    1s            27032.341107       0.827485
                                                      4052.439160       2.350354
                                                       922.349653       2.989583
                                                       261.277359       5.859993
                                                        85.309424       4.920023
                                                        31.080802       6.525964

     RI Auxiliary Basis Set             RI_aug-TZVP-MOLOPT-ae_N_RI_084_s_p_d_f_g

       Number of orbital shell sets:                                          20
       Number of orbital shells:                                              20
       Number of primitive Cartesian functions:                               20
       Number of Cartesian basis functions:                                  118
       Number of spherical basis functions:                                   84
       Norm type:                                                              2

       Normalised Cartesian orbitals:

                        Set   Shell   Orbital            Exponent    Coefficient

                          1       1    1s                0.394977       0.355090

                          2       1    8px               0.592593       0.741114
                          2       1    8py               0.592593       0.741114
                          2       1    8pz               0.592593       0.741114

                          3       1   12dx2              0.622193       0.717428
                          3       1   12dxy              0.622193       1.242621
                          3       1   12dxz              0.622193       1.242621
                          3       1   12dy2              0.622193       0.717428
                          3       1   12dyz              0.622193       1.242621
                          3       1   12dz2              0.622193       0.717428

                          4       1   15fx3              0.748820       0.767899
                          4       1   15fx2y             0.748820       1.717074
                          4       1   15fx2z             0.748820       1.717074
                          4       1   15fxy2             0.748820       1.717074
                          4       1   15fxyz             0.748820       2.974059
                          4       1   15fxz2             0.748820       1.717074
                          4       1   15fy3              0.748820       0.767899
                          4       1   15fy2z             0.748820       1.717074
                          4       1   15fyz2             0.748820       1.717074
                          4       1   15fz3              0.748820       0.767899

                          5       1    2s                0.758177       0.579080

                          6       1   20hx5              0.762638       0.307524
                          6       1   20hx4y             0.762638       0.922572
                          6       1   20hx4z             0.762638       0.922572
                          6       1   20hx3y2            0.762638       1.409252
                          6       1   20hx3yz            0.762638       2.440896
                          6       1   20hx3z2            0.762638       1.409252
                          6       1   20hx2y3            0.762638       1.409252
                          6       1   20hx2y2z           0.762638       3.151183
                          6       1   20hx2yz2           0.762638       3.151183
                          6       1   20hx2z3            0.762638       1.409252
                          6       1   20hxy4             0.762638       0.922572
                          6       1   20hxy3z            0.762638       2.440896
                          6       1   20hxy2z2           0.762638       3.151183
                          6       1   20hxyz3            0.762638       2.440896
                          6       1   20hxz4             0.762638       0.922572
                          6       1   20hy5              0.762638       0.307524
                          6       1   20hy4z             0.762638       0.922572
                          6       1   20hy3z2            0.762638       1.409252
                          6       1   20hy2z3            0.762638       1.409252
                          6       1   20hyz4             0.762638       0.922572
                          6       1   20hz5              0.762638       0.307524

                          7       1   18gx4              0.766762       0.536108
                          7       1   18gx3y             0.766762       1.418409
                          7       1   18gx3z             0.766762       1.418409
                          7       1   18gx2y2            0.766762       1.831158
                          7       1   18gx2yz            0.766762       3.171659
                          7       1   18gx2z2            0.766762       1.831158
                          7       1   18gxy3             0.766762       1.418409
                          7       1   18gxy2z            0.766762       3.171659
                          7       1   18gxyz2            0.766762       3.171659
                          7       1   18gxz3             0.766762       1.418409
                          7       1   18gy4              0.766762       0.536108
                          7       1   18gy3z             0.766762       1.418409
                          7       1   18gy2z2            0.766762       1.831158
                          7       1   18gyz3             0.766762       1.418409
                          7       1   18gz4              0.766762       0.536108

                          8       1    9px               1.302856       1.984087
                          8       1    9py               1.302856       1.984087
                          8       1    9pz               1.302856       1.984087

                          9       1   13dx2              1.576763       3.651747
                          9       1   13dxy              1.576763       6.325011
                          9       1   13dxz              1.576763       6.325011
                          9       1   13dy2              1.576763       3.651747
                          9       1   13dyz              1.576763       6.325011
                          9       1   13dz2              1.576763       3.651747

                         10       1   16fx3              1.850605       5.880449
                         10       1   16fx2y             1.850605      13.149085
                         10       1   16fx2z             1.850605      13.149085
                         10       1   16fxy2             1.850605      13.149085
                         10       1   16fxyz             1.850605      22.774883
                         10       1   16fxz2             1.850605      13.149085
                         10       1   16fy3              1.850605       5.880449
                         10       1   16fy2z             1.850605      13.149085
                         10       1   16fyz2             1.850605      13.149085
                         10       1   16fz3              1.850605       5.880449

                         11       1    3s                2.019986       1.207595

                         12       1   19gx4              2.247734      10.321295
                         12       1   19gx3y             2.247734      27.307580
                         12       1   19gx3z             2.247734      27.307580
                         12       1   19gx2y2            2.247734      35.253935
                         12       1   19gx2yz            2.247734      61.061606
                         12       1   19gx2z2            2.247734      35.253935
                         12       1   19gxy3             2.247734      27.307580
                         12       1   19gxy2z            2.247734      61.061606
                         12       1   19gxyz2            2.247734      61.061606
                         12       1   19gxz3             2.247734      27.307580
                         12       1   19gy4              2.247734      10.321295
                         12       1   19gy3z             2.247734      27.307580
                         12       1   19gy2z2            2.247734      35.253935
                         12       1   19gyz3             2.247734      27.307580
                         12       1   19gz4              2.247734      10.321295

                         13       1   10px               4.315805       8.866810
                         13       1   10py               4.315805       8.866810
                         13       1   10pz               4.315805       8.866810

                         14       1   17fx3              5.299035      62.718738
                         14       1   17fx2y             5.299035     140.243362
                         14       1   17fx2z             5.299035     140.243362
                         14       1   17fxy2             5.299035     140.243362
                         14       1   17fxyz             5.299035     242.908628
                         14       1   17fxz2             5.299035     140.243362
                         14       1   17fy3              5.299035      62.718738
                         14       1   17fy2z             5.299035     140.243362
                         14       1   17fyz2             5.299035     140.243362
                         14       1   17fz3              5.299035      62.718738

                         15       1   14dx2              5.831670      36.020277
                         15       1   14dxy              5.831670      62.388950
                         15       1   14dxz              5.831670      62.388950
                         15       1   14dy2              5.831670      36.020277
                         15       1   14dyz              5.831670      62.388950
                         15       1   14dz2              5.831670      36.020277

                         16       1    4s                6.133734       2.777818

                         17       1   11px              16.187533      46.282405
                         17       1   11py              16.187533      46.282405
                         17       1   11pz              16.187533      46.282405

                         18       1    5s               18.509850       6.360076

                         19       1    6s               54.993071      14.392660

                         20       1    7s              162.486381      32.435666

       Atomic covalent radius [Angstrom]:                                  0.730

       Atomic van der Waals radius [Angstrom]:                             1.520

     The atoms of this atomic kind are PAW atoms (GAPW):
       Hard Gaussian function radius:                                      1.512
       Rho0 radius:                                                        1.512
       Maximum GTO radius used for PAW projector construction:            24.566

     GAPW Soft Basis Set                                 aug-TZVP-MOLOPT-ae_soft

       Number of orbital shell sets:                                           2
       Number of orbital shells:                                              16
       Number of primitive Cartesian functions:                                5
       Number of Cartesian basis functions:                                   71
       Number of spherical basis functions:                                   56
       Norm type:                                                              2

       Normalised Cartesian orbitals:

                        Set   Shell   Orbital            Exponent    Coefficient

                          1       1    1s                0.050000       0.000000
                                                         0.148931       0.008771
                                                         0.454433       0.026241
                                                         1.335408       0.005818
                                                         4.395399       0.000000

                          1       2    2s                0.050000       0.000000
                                                         0.148931       0.036066
                                                         0.454433       0.073646
                                                         1.335408       0.667362
                                                         4.395399       0.000000

                          1       3    3s                0.050000       0.000000
                                                         0.148931       0.072341
                                                         0.454433       0.339134
                                                         1.335408      -0.296204
                                                         4.395399       0.000000

                          1       4    4s                0.050000       0.000000
                                                         0.148931       0.257390
                                                         0.454433      -0.327789
                                                         1.335408      -0.186757
                                                         4.395399       0.000000

                          1       5    5s                0.050000       0.095896
                                                         0.148931      -0.062439
                                                         0.454433       0.011784
                                                         1.335408      -0.100924
                                                         4.395399       0.000000

                          1       6    2px               0.050000       0.000000
                                                         0.148931       0.002211
                                                         0.454433      -0.015509
                                                         1.335408       1.487193
                                                         4.395399       0.000000
                          1       6    2py               0.050000       0.000000
                                                         0.148931       0.002211
                                                         0.454433      -0.015509
                                                         1.335408       1.487193
                                                         4.395399       0.000000
                          1       6    2pz               0.050000       0.000000
                                                         0.148931       0.002211
                                                         0.454433      -0.015509
                                                         1.335408       1.487193
                                                         4.395399       0.000000

                          1       7    3px               0.050000       0.000000
                                                         0.148931       0.008518
                                                         0.454433       0.481961
                                                         1.335408       0.085170
                                                         4.395399       0.000000
                          1       7    3py               0.050000       0.000000
                                                         0.148931       0.008518
                                                         0.454433       0.481961
                                                         1.335408       0.085170
                                                         4.395399       0.000000
                          1       7    3pz               0.050000       0.000000
                                                         0.148931       0.008518
                                                         0.454433       0.481961
                                                         1.335408       0.085170
                                                         4.395399       0.000000

                          1       8    4px               0.050000       0.000000
                                                         0.148931       0.138320
                                                         0.454433      -0.034294
                                                         1.335408      -0.042535
                                                         4.395399       0.000000
                          1       8    4py               0.050000       0.000000
                                                         0.148931       0.138320
                                                         0.454433      -0.034294
                                                         1.335408      -0.042535
                                                         4.395399       0.000000
                          1       8    4pz               0.050000       0.000000
                                                         0.148931       0.138320
                                                         0.454433      -0.034294
                                                         1.335408      -0.042535
                                                         4.395399       0.000000

                          1       9    5px               0.050000      -0.000964
                                                         0.148931       0.027417
                                                         0.454433       0.328542
                                                         1.335408       0.651611
                                                         4.395399       0.000000
                          1       9    5py               0.050000      -0.000964
                                                         0.148931       0.027417
                                                         0.454433       0.328542
                                                         1.335408       0.651611
                                                         4.395399       0.000000
                          1       9    5pz               0.050000      -0.000964
                                                         0.148931       0.027417
                                                         0.454433       0.328542
                                                         1.335408       0.651611
                                                         4.395399       0.000000

                          1      10    3dx2              0.050000       0.000000
                                                         0.148931       0.011799
                                                         0.454433       0.037044
                                                         1.335408       1.177796
                                                         4.395399       0.000000
                          1      10    3dxy              0.050000       0.000000
                                                         0.148931       0.020436
                                                         0.454433       0.064161
                                                         1.335408       2.040003
                                                         4.395399       0.000000
                          1      10    3dxz              0.050000       0.000000
                                                         0.148931       0.020436
                                                         0.454433       0.064161
                                                         1.335408       2.040003
                                                         4.395399       0.000000
                          1      10    3dy2              0.050000       0.000000
                                                         0.148931       0.011799
                                                         0.454433       0.037044
                                                         1.335408       1.177796
                                                         4.395399       0.000000
                          1      10    3dyz              0.050000       0.000000
                                                         0.148931       0.020436
                                                         0.454433       0.064161
                                                         1.335408       2.040003
                                                         4.395399       0.000000
                          1      10    3dz2              0.050000       0.000000
                                                         0.148931       0.011799
                                                         0.454433       0.037044
                                                         1.335408       1.177796
                                                         4.395399       0.000000

                          1      11    4dx2              0.050000       0.000000
                                                         0.148931      -0.006399
                                                         0.454433       0.341143
                                                         1.335408       1.062793
                                                         4.395399       0.000000
                          1      11    4dxy              0.050000       0.000000
                                                         0.148931      -0.011084
                                                         0.454433       0.590877
                                                         1.335408       1.840811
                                                         4.395399       0.000000
                          1      11    4dxz              0.050000       0.000000
                                                         0.148931      -0.011084
                                                         0.454433       0.590877
                                                         1.335408       1.840811
                                                         4.395399       0.000000
                          1      11    4dy2              0.050000       0.000000
                                                         0.148931      -0.006399
                                                         0.454433       0.341143
                                                         1.335408       1.062793
                                                         4.395399       0.000000
                          1      11    4dyz              0.050000       0.000000
                                                         0.148931      -0.011084
                                                         0.454433       0.590877
                                                         1.335408       1.840811
                                                         4.395399       0.000000
                          1      11    4dz2              0.050000       0.000000
                                                         0.148931      -0.006399
                                                         0.454433       0.341143
                                                         1.335408       1.062793
                                                         4.395399       0.000000

                          1      12    5dx2              0.050000      -0.000167
                                                         0.148931       0.000910
                                                         0.454433       0.391605
                                                         1.335408       0.205296
                                                         4.395399       0.000000
                          1      12    5dxy              0.050000      -0.000290
                                                         0.148931       0.001577
[...]
 MP_Sync               677
 MP_Alltoall          1449               53309254.
 MP_SendRecv          4991                 264371.
 MP_ISendRecv         9870                 146128.
 MP_Wait             18152
 MP_comm_split         105
 MP_ISend             7787                1709270.
 MP_IRecv             7800                1706418.
 -------------------------------------------------------------------------------


 -------------------------------------------------------------------------------
 -                                                                             -
 -                           R E F E R E N C E S                               -
 -                                                                             -
 -------------------------------------------------------------------------------
 
 CP2K version 2025.1 (Development Version), the CP2K developers group (2025).
 CP2K is freely available from https://www.cp2k.org/ .
 
 T. D. Kuehne, M. Iannuzzi, M. Del Ben, V. V. Rybkin, P. Seewald, F. Stein, T. 
 Laino, R. Z. Khaliullin, O. Schuett, F. Schiffmann, D. Golze, J. Wilhelm, S. 
 Chulkov, M. H. Bani-Hashemian, V. Weber, U. Borstnik, M. Taillefumier, A. S. 
 Jakobovits, A. Lazzaro, H. Pabst, T. Mueller, R. Schade, M. Guidon, S. 
 Andermatt, N. Holmberg, G. K. Schenter, A. Hehn, A. Bussy, F. Belleflamme, G. 
 Tabacchi, A. Gloess, M. Lass, I. Bethune, C. J. Mundy, C. Plessl, M. Watkins, 
 J. VandeVondele, M. Krack, J. Hutter.
 J. Chem. Phys. 152, 194103 (2020).
 CP2K: An electronic structure and molecular dynamics software package - 
 Quickstep: Efficient and accurate electronic structure calculations.
 https://doi.org/10.1063/5.0007045

 J. Wilhelm, D. Golze, L. Talirz, J. Hutter, C. A. Pignedoli.
 J. Phys. Chem. Lett. 9, 306-312 (2018).
 Toward GW calculations on thousands of atoms.
 https://doi.org/10.1021/acs.jpclett.7b02740

 J. Wilhelm, J. Hutter.
 Phys. Rev. B 95, 235123 (2017).
 Periodic GW calculations in the Gaussian and plane-waves scheme.
 https://doi.org/10.1103/PhysRevB.95.235123

 O. Schuett, P. Messmer, J. Hutter, J. VandeVondele.
 Electronic Structure Calculations on Graphics Processing Units, 173-190 (2016).
 GPU-Accelerated Sparse Matrix-Matrix Multiplication for Linear Scaling Density 
 Functional Theory.
 https://doi.org/10.1002/9781118670712.ch8

 J. Wilhelm, M. Del Ben, J. Hutter.
 J. Chem. Theory Comput. 12, 3623-3635 (2016).
 GW in the Gaussian and plane waves scheme with application to linear acenes.
 https://doi.org/10.1021/acs.jctc.6b00380

 M. Del Ben, O. Schuett, T. Wentz, P. Messmer, J. Hutter, J. VandeVondele.
 Comput. Phys. Commun. 187, 120-129 (2015).
 Enabling simulation at the fifth rung of DFT: Large scale RPA calculations with 
 excellent time to solution.
 https://doi.org/10.1016/j.cpc.2014.10.021

 J. Hutter, M. Iannuzzi, F. Schiffmann, J. VandeVondele.
 WIREs Comput Mol Sci. 4, 15-25 (2014).
 CP2K: atomistic simulations of condensed matter systems.
 https://doi.org/10.1002/wcms.1159

 U. Borstnik, J. VandeVondele, V. Weber, J. Hutter.
 Parallel Comput. 40, 47-58 (2014).
 Sparse matrix multiplication: The distributed block-compressed sparse row 
 library.
 https://doi.org/10.1016/j.parco.2014.03.012

 M. Del Ben, J. Hutter, J. VandeVondele.
 J. Chem. Theory Comput. 9, 2654-2671 (2013).
 Electron Correlation in the Condensed Phase from a Resolution of Identity 
 Approach Based on the Gaussian and Plane Waves Scheme.
 https://doi.org/10.1021/ct4002202

 M. Del Ben, J. Hutter, J. VandeVondele.
 J. Chem. Theory Comput. 8, 4177-4188 (2012).
 Second-Order Moller-Plesset Perturbation Theory in the Condensed Phase: An 
 Efficient and Massively Parallel Gaussian and Plane Waves Approach.
 https://doi.org/10.1021/ct300531w

 M. Guidon, J. Hutter, J. VandeVondele.
 J. Chem. Theory Comput. 5, 3010-3021 (2009).
 Robust Periodic Hartree-Fock Exchange for Large-Scale Simulations Using 
 Gaussian Basis Sets.
 https://doi.org/10.1021/ct900494g

 M. Guidon, F. Schiffmann, J. Hutter, J. VandeVondele.
 J. Chem. Phys. 128, 214104 (2008).
 Ab initio molecular dynamics using hybrid density functionals.
 https://doi.org/10.1063/1.2931945

 L. Genovese, T. Deutsch, S. Goedecker.
 J. Chem. Phys. 127, 054704 (2007).
 Efficient and accurate three-dimensional Poisson solver for surface problems.
 https://doi.org/10.1063/1.2754685

 J. VandeVondele, J. Hutter.
 J. Chem. Phys. 127, 114105 (2007).
 Gaussian basis sets for accurate calculations on molecular systems in gas and 
 condensed phases.
 https://doi.org/10.1063/1.2770708

 L. Genovese, T. Deutsch, A. Neelov, S. Goedecker, G. Beylkin.
 J. Chem. Phys. 125, 074105 (2006).
 Efficient solution of Poisson's equation with free boundary conditions.
 https://doi.org/10.1063/1.2335442

 M. Frigo, S. G. Johnson.
 Proc. IEEE 93, 216-231 (2005).
 The design and implementation of FFTW3.
 https://doi.org/10.1109/JPROC.2004.840301

 M. Krack, M. Parrinello.
 Phys. Chem. Chem. Phys. 2, 2105-2112 (2000).
 All-electron ab-initio molecular dynamics.
 https://doi.org/10.1039/b001167n

 G. Lippert, J. Hutter, M. Parrinello.
 Theor. Chem. Acc. 103, 124-140 (1999).
 The Gaussian and augmented-plane-wave density functional method for ab initio 
 molecular dynamics simulations.
 https://doi.org/10.1007/s002140050523

 J. P. Perdew, K. Burke, M. Ernzerhof.
 Phys. Rev. Lett. 77, 3865-3868 (1996).
 Generalized gradient approximation made simple.
 https://doi.org/10.1103/PhysRevLett.77.3865


 -------------------------------------------------------------------------------
 -                                                                             -
 -                                T I M I N G                                  -
 -                                                                             -
 -------------------------------------------------------------------------------
 SUBROUTINE                       CALLS  ASD         SELF TIME        TOTAL TIME
                                MAXIMUM       AVERAGE  MAXIMUM  AVERAGE  MAXIMUM
 CP2K                                 1  1.0    0.036    0.062  691.806  691.807
 qs_energies                          1  2.0    0.001    0.001  690.890  691.114
 scf_env_do_scf                       1  3.0    0.000    0.000  685.479  685.480
 scf_env_do_scf_inner_loop           51  4.0    0.001    0.003  685.479  685.479
 qs_ks_build_kohn_sham_matrix        52  7.0    0.008    0.009  649.480  649.500
 qs_ks_update_qs_env                 51  5.0    0.000    0.000  647.779  647.799
 rebuild_ks_matrix                   51  6.0    0.000    0.000  647.775  647.795
 hfx_ks_matrix                       52  8.0    0.002    0.003  521.004  521.040
 integrate_four_center               52  9.0    3.079    4.429  521.001  521.037
 mp_sync                            677  9.3  456.433  469.328  456.433  469.328
 integrate_four_center_main          52 10.0    8.323  337.761   12.112  469.258
 integrate_four_center_bin         4078 11.0    3.789  131.497    3.789  131.497
 fft_wrap_pw1pw2                   1083  9.9    0.025    0.032   61.452   62.575
 fft_wrap_pw1pw2_250                771 11.1    2.642    2.958   59.406   60.320
 fft3d_ps                          1083 11.9   24.232   26.883   49.507   50.546
 calc_screening_functions             1 10.0   45.785   48.738   45.976   48.927
 pw_poisson_solve                    52  8.0    0.926    1.002   45.309   45.339
 qs_vxc_create                       52  8.0    0.001    0.001   35.938   35.939
 xc_vxc_pw_create                    51  9.0    0.638    0.715   35.937   35.938
 ps_wavelet_solve                    52  9.0   23.336   26.337   29.851   30.058
 xc_pw_derive                       306 11.0    0.003    0.004   26.564   27.288
 mp_alltoall_d54                     52 10.0    4.280   23.249    4.280   23.249
 mp_alltoall_z22v                  1083 13.9   19.422   21.834   19.422   21.834
 qs_rho_update_rho_low               52  5.0    0.001    0.001   20.047   20.047
 prepare_gapw_den                    52  8.0    0.001    0.001   19.743   19.886
 calculate_rho_elec                  52  6.0    0.508    0.542   19.886   19.886
 xc_pw_divergence                    51 10.0    0.002    0.002   17.983   18.799
 xc_rho_set_and_dset_create          51 10.0    0.453    0.611   16.974   17.915
 gspace_mixing                       50  5.0    0.488    0.520   17.384   17.384
 density_rs2pw                       52  7.0    0.003    0.004   13.817   14.007
 x_to_yz                            566 13.1    4.125    4.433   13.470   13.987
 yz_to_x                            517 12.8    1.711    2.082   11.787   13.821
 broyden_mixing                      50  6.0   12.755   12.986   12.981   13.044
 calculate_rho_atom                 104  9.0    0.723   11.803    0.723   11.803
 mp_sum_dv                         5686 10.5   11.195   11.508   11.195   11.508
 sum_up_and_integrate                52  8.0    0.001    0.001   11.114   11.173
 integrate_v_rspace                  52  9.0    0.001    0.002   10.982   11.082
 potential_pw2rs                     52 10.0    0.027    0.028   10.457   10.544
 mp_sum_d                          2634  6.3    9.182   10.040    9.182   10.040
 transfer_pw2rs                     261 10.5    0.004    0.005    7.872    8.011
 put_rho0_on_grid                    52  9.0    0.512    0.551    7.745    7.889
 calculate_vxc_atom                  52  8.0    0.022    0.234    7.342    7.342
 transfer_rs2pw                     261  8.4    0.007    0.010    7.009    7.129
 gaVxcgb_GC                          51  9.0    0.165    7.070    0.165    7.070
 mp_waitany                        6908 11.5    6.246    6.680    6.246    6.680
 grid_collocate_task_list            52  7.0    5.346    5.582    5.346    5.582
 transfer_pw2rs_250                 105 10.9    1.679    1.808    5.199    5.449
 transfer_rs2pw_250                 105 10.0    1.909    2.082    4.925    5.067
 mp_alltoall_d11v                   976  9.5    2.454    4.796    2.454    4.796
 mp2_main                             1  3.0    0.000    0.000    4.391    4.615
 mp_sum_l                           818  5.6    2.971    4.518    2.971    4.518
 integrate_four_center_load          52 10.0    0.000    0.001    2.951    4.494
 hfx_load_balance                     1 11.0    0.000    0.000    2.951    4.493
 hfx_load_balance_range               1 12.0    0.000    0.000    2.948    4.489
 mp_alltoall_d45                     53 10.0    2.092    4.208    2.092    4.208
 pw_scatter_p                       566 12.1    4.050    4.125    4.050    4.125
 xc_functional_eval                 153 10.9    0.000    0.001    3.189    3.924
 pbe_lda_eval                       153 11.9    3.188    3.923    3.188    3.923
 pw_gather_p                        517 11.8    3.407    3.908    3.407    3.908
 integrate_vhg0_rspace               52  8.0    0.084    0.109    3.510    3.528
 pw_derive                          462 11.3    2.995    3.215    2.995    3.215
 mp2_gpw_main                         1  4.0    0.000    0.000    2.466    2.476
 cp2k_distribution_to_z_slices       52  9.0    0.964    1.015    1.814    1.938
 pw_copy                            775 10.6    1.756    1.869    1.756    1.869
 fft_wrap_pw1pw2_90                 104 10.5    0.077    0.109    1.639    1.854
 rpa_ri_compute_en                    1  5.0    0.000    0.000    1.726    1.726
 rpa_num_int                          1  6.0    0.001    0.001    1.716    1.717
 compute_vec_Sigma_x_minus_vxc_       1  4.0    0.000    0.000    1.709    1.709
 pw_poisson_set                      53  8.9    0.002    0.002    1.655    1.685
 rs_grid_zero                       262 11.1    1.573    1.619    1.573    1.619
 transfer_pw2rs_90                   52 12.0    0.309    0.371    1.213    1.589
 compute_GW_self_energy             100  7.0    0.001    0.001    1.433    1.458
 compute_GW_self_energy_deep        100  8.0    1.098    1.122    1.370    1.395
 mp_waitall_1                     16206 12.0    0.834    1.357    0.834    1.357
 pw_axpy                            515  9.3    1.133    1.235    1.133    1.235
 transfer_pw2rs_30                   52 12.0    0.708    0.762    1.087    1.188
 pw_copy_to_array                   517 11.8    1.037    1.150    1.037    1.150
 pw_poisson_rebuild                  52  9.0    0.000    0.000    1.102    1.132
 ps_wavelet_create                    1 10.0    0.000    0.000    1.102    1.132
 RS_z_slice_distribution              1 11.0    0.988    1.033    1.102    1.132
 Vh_1c_gg_integrals                  52  8.0    0.026    0.917    1.012    1.114
 transfer_rs2pw_90                   52  9.0    0.274    0.307    0.983    1.083
 mp_sum_dm                          524  7.6    0.586    0.950    0.586    0.950
 pw_integral_ab_c1d_c1d_gs           52  9.0    0.763    0.768    0.854    0.929
 transfer_rs2pw_30                   52  9.0    0.407    0.428    0.835    0.852
 pw_copy_from_array                 566 12.1    0.692    0.845    0.692    0.845
 mp2_ri_gpw_compute_in                1  5.0    0.000    0.000    0.723    0.723
 mp2_ri_gpw_compute_in_loop           1  6.0    0.000    0.000    0.718    0.718
 qs_scf_new_mos                      51  5.0    0.001    0.001    0.687    0.697
 contract_B_L                         4  7.0    0.001    0.002    0.573    0.690
 mp_isend_dv                       6772 11.8    0.348    0.650    0.348    0.650
 mp_sendrecv_dv                    4888 10.0    0.603    0.635    0.603    0.635
 mp_cart_create                     326 10.6    0.500    0.618    0.500    0.618
 init_scf_run                         1  3.0    0.000    0.000    0.605    0.605
 mp2_eri_3c_integrate                 1  7.0    0.000    0.000    0.130    0.604
 integrate_set_3c                    33  8.0    0.121    0.567    0.130    0.604
 dbt_pgrid_create_expert             84 10.8    0.000    0.000    0.486    0.603
 scf_env_initial_rho_setup            1  4.0    0.000    0.000    0.591    0.592
 cp_fm_syevd                         57  6.9    0.000    0.001    0.564    0.567
 pw_zero                            308 10.3    0.496    0.540    0.496    0.540
 rs_gather_matrices                  52 10.0    0.001    0.006    0.454    0.528
 cp_fm_redistribute_end              57  7.9    0.273    0.522    0.276    0.524
 grid_integrate_task_list            52 10.0    0.070    0.508    0.070    0.508
 mp_isend_dm3                      1884 11.5    0.231    0.493    0.231    0.493
 cp_fm_syevd_base                    57  7.9    0.246    0.493    0.246    0.493
 eigensolver_symm                    52  6.0    0.002    0.002    0.482    0.483
 qs_init_subsys                       1  2.0    0.008    0.010    0.474    0.474
 qs_env_setup                         1  3.0    0.000    0.000    0.445    0.449
 mp_irecv_dm3                      1884 11.5    0.245    0.448    0.245    0.448
 qs_env_rebuild_pw_env                2  3.5    0.000    0.000    0.443    0.448
 pw_env_rebuild                       1  5.0    0.001    0.001    0.443    0.447
 pw_grid_setup                        4  6.0    0.000    0.000    0.421    0.426
 pw_grid_setup_internal               4  7.0    0.010    0.013    0.421    0.426
 calc_pair_dist_radii                 1 10.0    0.237    0.279    0.373    0.416
 mp_sum_i                            19  9.5    0.224    0.410    0.224    0.410
 mp2_main_alloc_hfx                   1  4.0    0.186    0.409    0.186    0.409
 restraint_control                    1  2.0    0.000    0.000    0.224    0.409
 transfer_pw2rs_10                   52 12.0    0.179    0.193    0.368    0.396
 integrate_four_center_getP          52 10.0    0.005    0.006    0.243    0.350
 parallel_gemm_fm                   322  8.7    0.000    0.000    0.339    0.345
 parallel_gemm_fm_gemm              322  9.7    0.000    0.001    0.339    0.344
 cp_fm_gemm                         322 10.7    0.338    0.344    0.338    0.344
 powell_optimize                 129133 11.0    0.326    0.337    0.326    0.337
 mp_isendrecv_dv                   9776 12.0    0.175    0.335    0.175    0.335
 pw_grid_sort                         4  8.0    0.223    0.226    0.318    0.323
 fft_wrap_pw1pw2_30                 104 10.5    0.012    0.014    0.307    0.319
 qs_energies_init_hamiltonians        1  3.0    0.000    0.000    0.294    0.294
 build_core_hamiltonian_matrix        1  4.0    0.000    0.000    0.289    0.289
 overlap_condnum                      1  5.0    0.000    0.000    0.285    0.287
 scale_and_distribute               104 10.0    0.258    0.274    0.258    0.274
 mp_max_i                           565  2.7    0.166    0.267    0.166    0.267
 transfer_rs2pw_10                   52  9.0    0.085    0.090    0.259    0.264
 arnoldi_conjugate_gradient           5  6.0    0.007    0.008    0.241    0.241
 calculate_rho0_atom                104  9.0    0.155    0.190    0.155    0.190
 pw_scale                           205  9.5    0.133    0.164    0.133    0.164
 calculate_rho_atom_coeff            52  6.0    0.022    0.044    0.160    0.161
 mixing_init                          1  5.0    0.146    0.150    0.150    0.151
 dbcsr_sym_matrix_vector_mult       975  7.0    0.015    0.016    0.119    0.146
 calculate_dm_sparse                 51  6.0    0.000    0.000    0.131    0.134
 cp_dbcsr_plus_fm_fm_t               51  7.0    0.001    0.001    0.130    0.133
 start_bse_calculation                1  7.0    0.000    0.000    0.131    0.131
 scf_post_calculation_gpw             1  3.0    0.000    0.000    0.121    0.121
 write_available_results              1  4.0    0.000    0.000    0.121    0.121
 write_mo_free_results                1  5.0    0.013    0.014    0.121    0.121
 create_qs_kind_set                   1  2.0    0.000    0.000    0.117    0.118
 read_qs_kind                         2  3.0    0.048    0.054    0.117    0.118
 rpa_num_int_RPA_matrix_operati     100  7.0    0.001    0.002    0.117    0.117
 update_ks_atom                      52  8.0    0.014    0.034    0.088    0.113
 copy_dbcsr_to_fm                    74  6.5    0.001    0.002    0.095    0.106
 dbcsr_multiply_generic              80  8.1    0.004    0.004    0.100    0.103
 sort_shells                          4  9.0    0.095    0.097    0.095    0.097
 fft_wrap_pw1pw2_10                 104 10.5    0.003    0.003    0.075    0.090
 dbcsr_complete_redistribute        180  8.4    0.008    0.010    0.086    0.088
 mp_bcast_dm                        312  9.0    0.074    0.087    0.074    0.087
 dbcsr_add_d                       1500  7.1    0.001    0.002    0.014    0.087
 dbcsr_add_anytype                 1500  8.1    0.002    0.011    0.012    0.085
 dbt_total                            8  8.0    0.000    0.000    0.077    0.077
 xc_pw_smooth                        51 10.0    0.000    0.000    0.053    0.073
 parser_read_line                  8702  4.0    0.003    0.003    0.069    0.072
 dbcsr_desymmetrize_deep             76  7.5    0.002    0.002    0.061    0.071
 integrate_four_center_dist_KS       52 10.0    0.005    0.005    0.070    0.071
 diagonalize_C                        1  8.0    0.000    0.000    0.070    0.070
 dbt_contract                         4  9.0    0.001    0.001    0.067    0.070
 calc_mat_Q                         100  8.0    0.000    0.000    0.068    0.069
 -------------------------------------------------------------------------------

 The number of warnings for this run is : 1
 
 -------------------------------------------------------------------------------
  **** **** ******  **  PROGRAM ENDED AT                 2025-03-26 05:33:58.503
 ***** ** ***  *** **   PROGRAM RAN ON                              i05r08c06s09
 **    ****   ******    PROGRAM RAN BY                                   di38fab
 ***** **    ** ** **   PROGRAM PROCESS ID                               3343626
  **** **  *******  **  PROGRAM STOPPED IN /hppfs/scratch/04/di38fab/05_MOL/W4-1
                                           1+ALK/h2o/TZVP/GW+BSE/1e-4
