 DBCSR| CPU Multiplication driver                                           XSMM (U)
 DBCSR| Multrec recursion limit                                              512 (U)
 DBCSR| Multiplication stack size                                           1000 (D)
 DBCSR| Maximum elements for images                                    UNLIMITED (U)
 DBCSR| Multiplicative factor virtual images                                   1 (U)
 DBCSR| Use multiplication densification                                       T (D)
 DBCSR| Multiplication size stacks                                             3 (U)
 DBCSR| Use memory pool for CPU allocation                                     F (U)
 DBCSR| Number of 3D layers                                               SINGLE (U)
 DBCSR| Use MPI memory allocation                                              F (U)
 DBCSR| Use RMA algorithm                                                      F (U)
 DBCSR| Use Communication thread                                               T (U)
 DBCSR| Communication thread load                                             60 (D)
 DBCSR| MPI: My process id                                                     0
 DBCSR| MPI: Number of processes                                              80
 DBCSR| OMP: Current number of threads                                         8
 DBCSR| OMP: Max number of threads                                             8
 DBCSR| Split modifier for TAS multiplication algorithm                  1.0E+00 (U)


  **** **** ******  **  PROGRAM STARTED AT               2025-05-30 11:28:47.418
 ***** ** ***  *** **   PROGRAM STARTED ON                 n2cn0250.ab2021.local
 **    ****   ******    PROGRAM STARTED BY                              metdyn02
 ***** **    ** ** **   PROGRAM PROCESS ID                               1603809
  **** **  *******  **  PROGRAM STARTED IN /scratch/hpc-prf-metdyn/metdyn02_Remi
                                           /10_MOL/05_MOL_low_scal/05_MOL/aUKBqs
                                           EOTmq69kFe5R_nOg/5k_set_final_qzvp/WE
                                           BNAU/SZV/1e-5/7.0

 CP2K| version string:                 CP2K version 2025.1 (Development Version)
 CP2K| source code revision number:                                  git:32ddf85
 CP2K| cp2kflags: omp libint fftw3 libxc libgrpp elpa parallel scalapack mpi_f08
 CP2K|             cosma xsmm plumed2 spglib libvori libbqb libvdwxc hdf5
 CP2K| is freely available from                            https://www.cp2k.org/
 CP2K| Program compiled at                         Mon May 19 11:32:37 CEST 2025
 CP2K| Program compiled on                                              n2login1
 CP2K| Program compiled for                                                local
 CP2K| Data directory path    /opt/software/pc2/EB-SW/software/CP2K/2024.1-foss-
 CP2K| Input file name                                                    GW.inp

 GLOBAL| Force Environment number                                              1
 GLOBAL| Basis set file name            /scratch/hpc-prf-metdyn/metdyn02_Remi/BA
 GLOBAL| Potential file name            /pc2/groups/hpc-prf-metdyn/metdyn02_Remi
 GLOBAL| MM Potential file name                                     MM_POTENTIAL
 GLOBAL| Coordinate file name                                      __STD_INPUT__
 GLOBAL| Method name                                                        CP2K
 GLOBAL| Project name                                                       MoS2
 GLOBAL| Run type                                                         ENERGY
 GLOBAL| FFT library                                                       FFTW3
 GLOBAL| Diagonalization library                                            ELPA
 GLOBAL| Cholesky decomposition library                                ScaLAPACK
 GLOBAL| DGEMM library                                                      BLAS
 GLOBAL| Minimum number of eigenvectors for ELPA usage                        16
 GLOBAL| Orthonormality check for eigenvectors                          DISABLED
 GLOBAL| Matrix multiplication library                                     COSMA
 GLOBAL| All-to-all communication in single precision                          F
 GLOBAL| FFTs using library dependent lengths                                  F
 GLOBAL| Grid backend                                                       AUTO
 GLOBAL| Global print level                                               MEDIUM
 GLOBAL| MPI I/O enabled                                                       T
 GLOBAL| Total number of message passing processes                            80
 GLOBAL| Number of threads for this process                                    8
 GLOBAL| This output is from process                                           0
 GLOBAL| OpenMP stack size per thread (OMP_STACKSIZE)                    default
 GLOBAL| CPU model name                          AMD EPYC 7763 64-Core Processor
 GLOBAL| CPUID                                                              1002

 MEMORY| system memory details [Kb]
 MEMORY|                        rank 0           min           max       average
 MEMORY| MemTotal            263897584     263897572     263897628     263897595
 MEMORY| MemFree             243985508     243846268     254236784     247689190
 MEMORY| Buffers                 57680         25648        141624         67945
 MEMORY| Cached               14637796       6063788      14918544      11203926
 MEMORY| Slab                  2066540        802928       2185396       1782671
 MEMORY| SReclaimable           603096        162372        731292        489134
 MEMORY| MemLikelyFree       259284080     258893756     260582900     259450197


 *** Fundamental physical constants (SI units) ***

 *** Literature: B. J. Mohr and B. N. Taylor,
 ***             CODATA recommended values of the fundamental physical
 ***             constants: 2006, Web Version 5.1
 ***             http://physics.nist.gov/constants

 Speed of light in vacuum [m/s]                             2.99792458000000E+08
 Magnetic constant or permeability of vacuum [N/A**2]       1.25663706143592E-06
 Electric constant or permittivity of vacuum [F/m]          8.85418781762039E-12
 Planck constant (h) [J*s]                                  6.62606896000000E-34
 Planck constant (h-bar) [J*s]                              1.05457162825177E-34
 Elementary charge [C]                                      1.60217648700000E-19
 Electron mass [kg]                                         9.10938215000000E-31
 Electron g factor [ ]                                     -2.00231930436220E+00
 Proton mass [kg]                                           1.67262163700000E-27
 Fine-structure constant                                    7.29735253760000E-03
 Rydberg constant [1/m]                                     1.09737315685270E+07
 Avogadro constant [1/mol]                                  6.02214179000000E+23
 Boltzmann constant [J/K]                                   1.38065040000000E-23
 Atomic mass unit [kg]                                      1.66053878200000E-27
 Bohr radius [m]                                            5.29177208590000E-11

 *** Conversion factors ***

 [u] -> [a.u.]                                              1.82288848426455E+03
 [Angstrom] -> [Bohr] = [a.u.]                              1.88972613288564E+00
 [a.u.] = [Bohr] -> [Angstrom]                              5.29177208590000E-01
 [a.u.] -> [s]                                              2.41888432650478E-17
 [a.u.] -> [fs]                                             2.41888432650478E-02
 [a.u.] -> [J]                                              4.35974393937059E-18
 [a.u.] -> [N]                                              8.23872205491840E-08
 [a.u.] -> [K]                                              3.15774647902944E+05
 [a.u.] -> [kJ/mol]                                         2.62549961709828E+03
 [a.u.] -> [kcal/mol]                                       6.27509468713739E+02
 [a.u.] -> [Pa]                                             2.94210107994716E+13
 [a.u.] -> [bar]                                            2.94210107994716E+08
 [a.u.] -> [atm]                                            2.90362800883016E+08
 [a.u.] -> [eV]                                             2.72113838565563E+01
 [a.u.] -> [Hz]                                             6.57968392072181E+15
 [a.u.] -> [1/cm] (wave numbers)                            2.19474631370540E+05
 [a.u./Bohr**2] -> [1/cm]                                   5.14048714338585E+03
 

 CELL_TOP| Volume [angstrom^3]:                                     27000.000000
 CELL_TOP| Vector a [angstrom    30.000     0.000     0.000   |a| =    30.000000
 CELL_TOP| Vector b [angstrom     0.000    30.000     0.000   |b| =    30.000000
 CELL_TOP| Vector c [angstrom     0.000     0.000    30.000   |c| =    30.000000
 CELL_TOP| Angle (b,c), alpha [degree]:                                90.000000
 CELL_TOP| Angle (a,c), beta  [degree]:                                90.000000
 CELL_TOP| Angle (a,b), gamma [degree]:                                90.000000
 CELL_TOP| Numerically orthorhombic:                                         YES
 CELL_TOP| Periodicity                                                      NONE

 GENERATE|  Preliminary Number of Bonds generated:                             0
 GENERATE|  Achieved consistency in connectivity generation.

 CELL| Volume [angstrom^3]:                                         27000.000000
 CELL| Vector a [angstrom]:      30.000     0.000     0.000   |a| =    30.000000
 CELL| Vector b [angstrom]:       0.000    30.000     0.000   |b| =    30.000000
 CELL| Vector c [angstrom]:       0.000     0.000    30.000   |c| =    30.000000
 CELL| Angle (b,c), alpha [degree]:                                    90.000000
 CELL| Angle (a,c), beta  [degree]:                                    90.000000
 CELL| Angle (a,b), gamma [degree]:                                    90.000000
 CELL| Numerically orthorhombic:                                             YES
 CELL| Periodicity                                                          NONE

 CELL_REF| Volume [angstrom^3]:                                     27000.000000
 CELL_REF| Vector a [angstrom    30.000     0.000     0.000   |a| =    30.000000
 CELL_REF| Vector b [angstrom     0.000    30.000     0.000   |b| =    30.000000
 CELL_REF| Vector c [angstrom     0.000     0.000    30.000   |c| =    30.000000
 CELL_REF| Angle (b,c), alpha [degree]:                                90.000000
 CELL_REF| Angle (a,c), beta  [degree]:                                90.000000
 CELL_REF| Angle (a,b), gamma [degree]:                                90.000000
 CELL_REF| Numerically orthorhombic:                                         YES
 CELL_REF| Periodicity                                                      NONE

 *******************************************************************************
 *******************************************************************************
 **                                                                           **
 **     #####                         ##              ##                      **
 **    ##   ##            ##          ##              ##                      **
 **   ##     ##                       ##            ######                    **
 **   ##     ##  ##   ##  ##   #####  ##  ##   ####   ##    #####    #####    **
 **   ##     ##  ##   ##  ##  ##      ## ##   ##      ##   ##   ##  ##   ##   **
 **   ##  ## ##  ##   ##  ##  ##      ####     ###    ##   ######   ######    **
 **    ##  ###   ##   ##  ##  ##      ## ##      ##   ##   ##       ##        **
 **     #######   #####   ##   #####  ##  ##  ####    ##    #####   ##        **
 **           ##                                                    ##        **
 **                                                                           **
 **                                                ... make the atoms dance   **
 **                                                                           **
 **            Copyright (C) by CP2K developers group (2000-2025)             **
 **                      J. Chem. Phys. 152, 194103 (2020)                    **
 **                                                                           **
 *******************************************************************************

 DFT| Spin restricted Kohn-Sham (RKS) calculation                            RKS
 DFT| Multiplicity                                                             1
 DFT| Number of spin states                                                    1
 DFT| Charge                                                                   0
 DFT| Self-interaction correction (SIC)                                       NO
 DFT| Cutoffs: density                                              1.000000E-10
 DFT|          gradient                                             1.000000E-10
 DFT|          tau                                                  1.000000E-10
 DFT|          cutoff_smoothing_range                               0.000000E+00
 DFT| XC density smoothing                                                  NONE
 DFT| XC derivatives                                                          PW

 FUNCTIONAL| PBE:
 FUNCTIONAL| J.P.Perdew, K.Burke, M.Ernzerhof, Phys. Rev. Letter, vol. 77, n 18,
 FUNCTIONAL|  pp. 3865-3868, (1996)sx=0.750sc=1.000{spin unpolarized}           


 QS| Method:                                                                GAPW
 QS| Density plane wave grid type                        NON-SPHERICAL FULLSPACE
 QS| Number of grid levels:                                                    4
 QS| Density cutoff [a.u.]:                                                250.0
 QS| Multi grid cutoff [a.u.]: 1) grid level                               250.0
 QS|                           2) grid level                                83.3
 QS|                           3) grid level                                27.8
 QS|                           4) grid level                                 9.3
 QS| Grid level progression factor:                                          3.0
 QS| Relative density cutoff [a.u.]:                                        50.0
 QS| Interaction thresholds: eps_pgf_orb:                                1.0E-12
 QS|                         eps_filter_matrix:                          0.0E+00
 QS|                         eps_core_charge:                            1.0E-14
 QS|                         eps_rho_gspace:                             1.0E-12
 QS|                         eps_rho_rspace:                             1.0E-12
 QS|                         eps_gvg_rspace:                             1.0E-06
 QS|                         eps_ppl:                                    1.0E-02
 QS|                         eps_ppnl:                                   1.0E-08
 QS| GAPW|      One center basis from orbital basis primitives
 QS| GAPW|                   eps_fit:                                    1.0E-04
 QS| GAPW|                   eps_iso:                                    1.0E-12
 QS| GAPW|                   eps_svd:                                    1.0E-08
 QS| GAPW|                   eps_cpc:                                    1.0E-12
 QS| GAPW|   atom-r-grid: quadrature:                                     GC_LOG
 QS| GAPW|      atom-s-grid:  max l :                                          4
 QS| GAPW|      max_l_rho0 :                                                   2


 ATOMIC KIND INFORMATION

  1. Atomic kind: F                                     Number of atoms:       3

     Orbital Basis Set                                         aug-SZV-MOLOPT-ae

       Number of orbital shell sets:                                           2
       Number of orbital shells:                                               6
       Number of primitive Cartesian functions:                               14
       Number of Cartesian basis functions:                                   15
       Number of spherical basis functions:                                   14
       Norm type:                                                              2

       Normalised Cartesian orbitals:

                        Set   Shell   Orbital            Exponent    Coefficient

                          1       1    1s                0.080000       0.000000
                                                         0.150000       0.000000
                                                         0.315820       0.072273
                                                         0.689002       0.320758
                                                         1.586463       0.252111
                                                         4.123510      -0.069677
                                                        13.267438      -0.232821
                                                        67.032281      -0.221274

                          1       2    2s                0.080000       0.215695
                                                         0.150000      -0.211932
                                                         0.315820      -0.108152
                                                         0.689002       0.433639
                                                         1.586463      -0.257713
                                                         4.123510       0.098829
                                                        13.267438       0.000000
                                                        67.032281       0.000000

                          1       3    2px               0.080000       0.000000
                                                         0.150000       0.000000
                                                         0.315820       0.034324
                                                         0.689002       0.381050
                                                         1.586463       1.060942
                                                         4.123510       1.456516
                                                        13.267438       1.359964
                                                        67.032281       1.027893
                          1       3    2py               0.080000       0.000000
                                                         0.150000       0.000000
                                                         0.315820       0.034324
                                                         0.689002       0.381050
                                                         1.586463       1.060942
                                                         4.123510       1.456516
                                                        13.267438       1.359964
                                                        67.032281       1.027893
                          1       3    2pz               0.080000       0.000000
                                                         0.150000       0.000000
                                                         0.315820       0.034324
                                                         0.689002       0.381050
                                                         1.586463       1.060942
                                                         4.123510       1.456516
                                                        13.267438       1.359964
                                                        67.032281       1.027893

                          1       4    3px               0.080000       0.095170
                                                         0.150000      -0.118369
                                                         0.315820       0.128679
                                                         0.689002      -0.166392
                                                         1.586463      -0.515032
                                                         4.123510       0.009820
                                                        13.267438       0.000000
                                                        67.032281       0.000000
                          1       4    3py               0.080000       0.095170
                                                         0.150000      -0.118369
                                                         0.315820       0.128679
                                                         0.689002      -0.166392
                                                         1.586463      -0.515032
                                                         4.123510       0.009820
                                                        13.267438       0.000000
                                                        67.032281       0.000000
                          1       4    3pz               0.080000       0.095170
                                                         0.150000      -0.118369
                                                         0.315820       0.128679
                                                         0.689002      -0.166392
                                                         1.586463      -0.515032
                                                         4.123510       0.009820
                                                        13.267438       0.000000
                                                        67.032281       0.000000

                          1       5    3dx2              0.080000       0.005746
                                                         0.150000      -0.014463
                                                         0.315820      -0.016939
                                                         0.689002       0.279904
                                                         1.586463       2.240938
                                                         4.123510       4.953143
                                                        13.267438       0.000000
                                                        67.032281       0.000000
                          1       5    3dxy              0.080000       0.009952
                                                         0.150000      -0.025050
                                                         0.315820      -0.029340
                                                         0.689002       0.484808
                                                         1.586463       3.881418
                                                         4.123510       8.579095
                                                        13.267438       0.000000
                                                        67.032281       0.000000
                          1       5    3dxz              0.080000       0.009952
                                                         0.150000      -0.025050
                                                         0.315820      -0.029340
                                                         0.689002       0.484808
                                                         1.586463       3.881418
                                                         4.123510       8.579095
                                                        13.267438       0.000000
                                                        67.032281       0.000000
                          1       5    3dy2              0.080000       0.005746
                                                         0.150000      -0.014463
                                                         0.315820      -0.016939
                                                         0.689002       0.279904
                                                         1.586463       2.240938
                                                         4.123510       4.953143
                                                        13.267438       0.000000
                                                        67.032281       0.000000
                          1       5    3dyz              0.080000       0.009952
                                                         0.150000      -0.025050
                                                         0.315820      -0.029340
                                                         0.689002       0.484808
                                                         1.586463       3.881418
                                                         4.123510       8.579095
                                                        13.267438       0.000000
                                                        67.032281       0.000000
                          1       5    3dz2              0.080000       0.005746
                                                         0.150000      -0.014463
                                                         0.315820      -0.016939
                                                         0.689002       0.279904
                                                         1.586463       2.240938
                                                         4.123510       4.953143
                                                        13.267438       0.000000
                                                        67.032281       0.000000

                          2       1    1s             1728.626574       1.750862
                                                       316.941790       2.642610
                                                        88.668891       3.470861
                                                        30.460157       3.424294
                                                        11.828570       1.893283
                                                         4.871659       0.304597

     RI Auxiliary Basis Set             RI_aug-SZV-MOLOPT-ae_N_RI_068_s_p_d_f_g_

       Number of orbital shell sets:                                          20
       Number of orbital shells:                                              20
       Number of primitive Cartesian functions:                               20
       Number of Cartesian basis functions:                                   84
       Number of spherical basis functions:                                   68
       Norm type:                                                              2

       Normalised Cartesian orbitals:

                        Set   Shell   Orbital            Exponent    Coefficient

                          1       1    1s                0.127346       0.151932

                          2       1    8px               0.173369       0.159461
                          2       1    8py               0.173369       0.159461
                          2       1    8pz               0.173369       0.159461

                          3       1   14dx2              0.202093       0.100259
                          3       1   14dxy              0.202093       0.173654
                          3       1   14dxz              0.202093       0.173654
                          3       1   14dy2              0.202093       0.100259
                          3       1   14dyz              0.202093       0.173654
                          3       1   14dz2              0.202093       0.100259

                          4       1    2s                0.527785       0.441319

                          5       1    9px               1.802078       2.976166
                          5       1    9py               1.802078       2.976166
                          5       1    9pz               1.802078       2.976166

                          6       1   15dx2              1.894830       5.036832
                          6       1   15dxy              1.894830       8.724050
                          6       1   15dxz              1.894830       8.724050
                          6       1   15dy2              1.894830       5.036832
                          6       1   15dyz              1.894830       8.724050
                          6       1   15dz2              1.894830       5.036832

                          7       1    3s                2.187398       1.281905

                          8       1   18fx3              2.738300      14.199944
                          8       1   18fx2y             2.738300      31.752039
                          8       1   18fx2z             2.738300      31.752039
                          8       1   18fxy2             2.738300      31.752039
                          8       1   18fxyz             2.738300      54.996146
                          8       1   18fxz2             2.738300      31.752039
                          8       1   18fy3              2.738300      14.199944
                          8       1   18fy2z             2.738300      31.752039
                          8       1   18fyz2             2.738300      31.752039
                          8       1   18fz3              2.738300      14.199944

                          9       1   20gx4              2.745202      17.886059
                          9       1   20gx3y             2.745202      47.322065
                          9       1   20gx3z             2.745202      47.322065
                          9       1   20gx2y2            2.745202      61.092523
                          9       1   20gx2yz            2.745202     105.815353
                          9       1   20gx2z2            2.745202      61.092523
                          9       1   20gxy3             2.745202      47.322065
                          9       1   20gxy2z            2.745202     105.815353
                          9       1   20gxyz2            2.745202     105.815353
                          9       1   20gxz3             2.745202      47.322065
                          9       1   20gy4              2.745202      17.886059
                          9       1   20gy3z             2.745202      47.322065
                          9       1   20gy2z2            2.745202      61.092523
                          9       1   20gyz3             2.745202      47.322065
                          9       1   20gz4              2.745202      17.886059

                         10       1   10px               4.569781       9.523780
                         10       1   10py               4.569781       9.523780
                         10       1   10pz               4.569781       9.523780

                         11       1   16dx2              5.288274      30.353506
                         11       1   16dxy              5.288274      52.573815
                         11       1   16dxz              5.288274      52.573815
                         11       1   16dy2              5.288274      30.353506
                         11       1   16dyz              5.288274      52.573815
                         11       1   16dz2              5.288274      30.353506

                         12       1    4s                9.065645       3.723567

                         13       1   19fx3             12.787394     455.212330
                         13       1   19fx2y            12.787394    1017.885715
                         13       1   19fx2z            12.787394    1017.885715
                         13       1   19fxy2            12.787394    1017.885715
                         13       1   19fxyz            12.787394    1763.029775
                         13       1   19fxz2            12.787394    1017.885715
                         13       1   19fy3             12.787394     455.212330
                         13       1   19fy2z            12.787394    1017.885715
                         13       1   19fyz2            12.787394    1017.885715
                         13       1   19fz3             12.787394     455.212330

                         14       1   11px              13.608096      37.255191
                         14       1   11py              13.608096      37.255191
                         14       1   11pz              13.608096      37.255191

                         15       1   17dx2             27.250925     534.966564
                         15       1   17dxy             27.250925     926.589270
                         15       1   17dxz             27.250925     926.589270
                         15       1   17dy2             27.250925     534.966564
                         15       1   17dyz             27.250925     926.589270
                         15       1   17dz2             27.250925     534.966564

                         16       1    5s               37.572465      10.815892

                         17       1   12px              40.034860     143.544971
                         17       1   12py              40.034860     143.544971
                         17       1   12pz              40.034860     143.544971

                         18       1   13px             117.990249     554.303645
                         18       1   13py             117.990249     554.303645
                         18       1   13pz             117.990249     554.303645

                         19       1    6s              155.718663      31.417064

                         20       1    7s              645.374259      91.257553

       Atomic covalent radius [Angstrom]:                                  0.720

       Atomic van der Waals radius [Angstrom]:                             1.470

     The atoms of this atomic kind are PAW atoms (GAPW):
       Hard Gaussian function radius:                                      1.512
       Rho0 radius:                                                        1.512
       Maximum GTO radius used for PAW projector construction:            24.566

     GAPW Soft Basis Set                                  aug-SZV-MOLOPT-ae_soft

       Number of orbital shell sets:                                           2
       Number of orbital shells:                                               6
       Number of primitive Cartesian functions:                                6
       Number of Cartesian basis functions:                                   15
       Number of spherical basis functions:                                   14
       Norm type:                                                              2

       Normalised Cartesian orbitals:

                        Set   Shell   Orbital            Exponent    Coefficient

                          1       1    1s                0.080000       0.000000
                                                         0.150000       0.000000
                                                         0.315820       0.072273
                                                         0.689002       0.320758
                                                         1.586463       0.252111
                                                         4.123510       0.000000

                          1       2    2s                0.080000       0.215695
                                                         0.150000      -0.211932
                                                         0.315820      -0.108152
                                                         0.689002       0.433639
                                                         1.586463      -0.257713
                                                         4.123510       0.000000

                          1       3    2px               0.080000       0.000000
                                                         0.150000       0.000000
                                                         0.315820       0.034324
                                                         0.689002       0.381050
                                                         1.586463       1.060942
                                                         4.123510       1.456516
                          1       3    2py               0.080000       0.000000
                                                         0.150000       0.000000
                                                         0.315820       0.034324
                                                         0.689002       0.381050
                                                         1.586463       1.060942
                                                         4.123510       1.456516
                          1       3    2pz               0.080000       0.000000
                                                         0.150000       0.000000
                                                         0.315820       0.034324
                                                         0.689002       0.381050
                                                         1.586463       1.060942
                                                         4.123510       1.456516

                          1       4    3px               0.080000       0.095170
                                                         0.150000      -0.118369
                                                         0.315820       0.128679
                                                         0.689002      -0.166392
                                                         1.586463      -0.515032
                                                         4.123510       0.009820
                          1       4    3py               0.080000       0.095170
                                                         0.150000      -0.118369
                                                         0.315820       0.128679
                                                         0.689002      -0.166392
                                                         1.586463      -0.515032
                                                         4.123510       0.009820
                          1       4    3pz               0.080000       0.095170
                                                         0.150000      -0.118369
                                                         0.315820       0.128679
                                                         0.689002      -0.166392
                                                         1.586463      -0.515032
                                                         4.123510       0.009820

                          1       5    3dx2              0.080000       0.005746
                                                         0.150000      -0.014463
                                                         0.315820      -0.016939
                                                         0.689002       0.279904
                                                         1.586463       2.240938
                                                         4.123510       4.953143
                          1       5    3dxy              0.080000       0.009952
                                                         0.150000      -0.025050
                                                         0.315820      -0.029340
                                                         0.689002       0.484808
                                                         1.586463       3.881418
                                                         4.123510       8.579095
                          1       5    3dxz              0.080000       0.009952
                                                         0.150000      -0.025050
                                                         0.315820      -0.029340
                                                         0.689002       0.484808
                                                         1.586463       3.881418
                                                         4.123510       8.579095
                          1       5    3dy2              0.080000       0.005746
                                                         0.150000      -0.014463
                                                         0.315820      -0.016939
                                                         0.689002       0.279904
                                                         1.586463       2.240938
                                                         4.123510       4.953143
                          1       5    3dyz              0.080000       0.009952
                                                         0.150000      -0.025050
                                                         0.315820      -0.029340
                                                         0.689002       0.484808
                                                         1.586463       3.881418
                                                         4.123510       8.579095
                          1       5    3dz2              0.080000       0.005746
                                                         0.150000      -0.014463
                                                         0.315820      -0.016939
                                                         0.689002       0.279904
                                                         1.586463       2.240938
                                                         4.123510       4.953143

                          2       1    1s         

     AE Potential information for                                            ALL

       Description:                                       All-electron potential
                                          Krack, Parrinello, PCCP 2, 2105 (2000)

       Gaussian exponent of the core charge distribution:              10.470541
       Electronic configuration (s p d ...):                           4   5   0

  2. Atomic kind: O                                     Number of atoms:       2

     Orbital Basis Set                                         aug-SZV-MOLOPT-ae

       Number of orbital shell sets:                                           2
       Number of orbital shells:                                               6
       Number of primitive Cartesian functions:                               13
       Number of Cartesian basis functions:                                   15
       Number of spherical basis functions:                                   14
       Norm type:                                                              2

       Normalised Cartesian orbitals:

                        Set   Shell   Orbital            Exponent    Coefficient

                          1       1    1s                0.123000       0.000000
                                                         0.245881       0.059902
                                                         0.536420       0.265853
                                                         1.235135       0.208956
                                                         3.210345      -0.057750
                                                        10.329320      -0.192968
                                                        52.187762      -0.183398

                          1       2    2s                0.123000      -0.253465
                                                         0.245881       0.187097
                                                         0.536420       0.063592
                                                         1.235135       0.074938
                                                         3.210345       0.000000
                                                        10.329320       0.000000
                                                        52.187762       0.000000

                          1       3    2px               0.123000       0.000000
                                                         0.245881       0.025102
                                                         0.536420       0.278668
                                                         1.235135       0.775885
                                                         3.210345       1.065175
                                                        10.329320       0.994565
                                                        52.187762       0.751716
                          1       3    2py               0.123000       0.000000
                                                         0.245881       0.025102
                                                         0.536420       0.278668
                                                         1.235135       0.775885
                                                         3.210345       1.065175
                                                        10.329320       0.994565
                                                        52.187762       0.751716
                          1       3    2pz               0.123000       0.000000
                                                         0.245881       0.025102
                                                         0.536420       0.278668
                                                         1.235135       0.775885
                                                         3.210345       1.065175
                                                        10.329320       0.994565
                                                        52.187762       0.751716

                          1       4    3px               0.123000       0.048536
                                                         0.245881       0.257066
                                                         0.536420      -0.539300
                                                         1.235135      -0.153605
                                                         3.210345       0.000000
                                                        10.329320       0.000000
                                                        52.187762       0.000000
                          1       4    3py               0.123000       0.048536
                                                         0.245881       0.257066
                                                         0.536420      -0.539300
                                                         1.235135      -0.153605
                                                         3.210345       0.000000
                                                        10.329320       0.000000
                                                        52.187762       0.000000
                          1       4    3pz               0.123000       0.048536
                                                         0.245881       0.257066
                                                         0.536420      -0.539300
                                                         1.235135      -0.153605
                                                         3.210345       0.000000
                                                        10.329320       0.000000
                                                        52.187762       0.000000

                          1       5    3dx2              0.123000       0.022065
                                                         0.245881       0.038414
                                                         0.536420       0.100211
                                                         1.235135       0.626583
                                                         3.210345       0.000000
                                                        10.329320       0.000000
                                                        52.187762       0.000000
                          1       5    3dxy              0.123000       0.038217
                                                         0.245881       0.066534
                                                         0.536420       0.173571
                                                         1.235135       1.085274
                                                         3.210345       0.000000
                                                        10.329320       0.000000
                                                        52.187762       0.000000
                          1       5    3dxz              0.123000       0.038217
                                                         0.245881       0.066534
                                                         0.536420       0.173571
                                                         1.235135       1.085274
                                                         3.210345       0.000000
                                                        10.329320       0.000000
                                                        52.187762       0.000000
                          1       5    3dy2              0.123000       0.022065
                                                         0.245881       0.038414
                                                         0.536420       0.100211
                                                         1.235135       0.626583
                                                         3.210345       0.000000
                                                        10.329320       0.000000
                                                        52.187762       0.000000
                          1       5    3dyz              0.123000       0.038217
                                                         0.245881       0.066534
                                                         0.536420       0.173571
                                                         1.235135       1.085274
                                                         3.210345       0.000000
                                                        10.329320       0.000000
                                                        52.187762       0.000000
                          1       5    3dz2              0.123000       0.022065
                                                         0.245881       0.038414
                                                         0.536420       0.100211
                                                         1.235135       0.626583
                                                         3.210345       0.000000
                                                        10.329320       0.000000
                                                        52.187762       0.000000

                          2       1    1s             1355.584234       1.459053
                                                       248.544885       2.202176
                                                        69.533902       2.892385
                                                        23.886772       2.853580
                                                         9.275933       1.577736
                                                         3.820341       0.253831

     RI Auxiliary Basis Set             RI_aug-SZV-MOLOPT-ae_N_RI_059_s_p_d_f_g_

       Number of orbital shell sets:                                          19
       Number of orbital shells:                                              19
       Number of primitive Cartesian functions:                               19
       Number of Cartesian basis functions:                                   69
       Number of spherical basis functions:                                   59
       Norm type:                                                              2

       Normalised Cartesian orbitals:

                        Set   Shell   Orbital            Exponent    Coefficient

                          1       1    8px               0.387183       0.435347
                          1       1    8py               0.387183       0.435347
                          1       1    8pz               0.387183       0.435347

                          2       1    1s                0.401814       0.359691

                          3       1   14dx2              0.406975       0.341313
                          3       1   14dxy              0.406975       0.591171
                          3       1   14dxz              0.406975       0.591171
                          3       1   14dy2              0.406975       0.341313
                          3       1   14dyz              0.406975       0.591171
                          3       1   14dz2              0.406975       0.341313

                          4       1   18fx3              0.710316       0.681900
                          4       1   18fx2y             0.710316       1.524775
                          4       1   18fx2z             0.710316       1.524775
                          4       1   18fxy2             0.710316       1.524775
                          4       1   18fxyz             0.710316       2.640987
                          4       1   18fxz2             0.710316       1.524775
                          4       1   18fy3              0.710316       0.681900
                          4       1   18fy2z             0.710316       1.524775
                          4       1   18fyz2             0.710316       1.524775
                          4       1   18fz3              0.710316       0.681900

                          5       1    2s                0.815118       0.611400

                          6       1    9px               0.936160       1.312586
                          6       1    9py               0.936160       1.312586
                          6       1    9pz               0.936160       1.312586

                          7       1   15dx2              1.399120       2.962482
                          7       1   15dxy              1.399120       5.131170
                          7       1   15dxz              1.399120       5.131170
                          7       1   15dy2              1.399120       2.962482
                          7       1   15dyz              1.399120       5.131170
                          7       1   15dz2              1.399120       2.962482

                          8       1   19fx3              2.975548      17.119068
                          8       1   19fx2y             2.975548      38.279399
                          8       1   19fx2z             2.975548      38.279399
                          8       1   19fxy2             2.975548      38.279399
                          8       1   19fxyz             2.975548      66.301864
                          8       1   19fxz2             2.975548      38.279399
                          8       1   19fy3              2.975548      17.119068
                          8       1   19fy2z             2.975548      38.279399
                          8       1   19fyz2             2.975548      38.279399
                          8       1   19fz3              2.975548      17.119068

                          9       1    3s                2.984514       1.618323

                         10       1   10px               3.853534       7.695984
                         10       1   10py               3.853534       7.695984
                         10       1   10pz               3.853534       7.695984

                         11       1   16dx2              4.872389      26.300125
                         11       1   16dxy              4.872389      45.553152
                         11       1   16dxz              4.872389      45.553152
                         11       1   16dy2              4.872389      26.300125
                         11       1   16dyz              4.872389      45.553152
                         11       1   16dz2              4.872389      26.300125

                         12       1    4s               10.894835       4.273912

                         13       1   11px              11.105891      28.898937
                         13       1   11py              11.105891      28.898937
                         13       1   11pz              11.105891      28.898937

                         14       1   17dx2             21.877838     364.264749
                         14       1   17dxy             21.877838     630.925052
                         14       1   17dxz             21.877838     630.925052
                         14       1   17dy2             21.877838     364.264749
                         14       1   17dyz             21.877838     630.925052
                         14       1   17dz2             21.877838     364.264749

                         15       1   12px              32.392274     110.151873
                         15       1   12py              32.392274     110.151873
                         15       1   12pz              32.392274     110.151873

                         16       1    5s               38.971767      11.116618

                         17       1   13px              93.034236     411.854279
                         17       1   13py              93.034236     411.854279
                         17       1   13pz              93.034236     411.854279

                         18       1    6s              138.098524      28.711235

                         19       1    7s              488.376845      74.041702

       Atomic covalent radius [Angstrom]:                                  0.730

       Atomic van der Waals radius [Angstrom]:                             1.520

     The atoms of this atomic kind are PAW atoms (GAPW):
       Hard Gaussian function radius:                                      1.512
       Rho0 radius:                                                        1.512
       Maximum GTO radius used for PAW projector construction:            24.566

     GAPW Soft Basis Set                                  aug-SZV-MOLOPT-ae_soft

       Number of orbital shell sets:                                           2
       Number of orbital shells:                                               6
       Number of primitive Cartesian functions:                                6
       Number of Cartesian basis functions:                                   15
       Number of spherical basis functions:                                   14
       Norm type:                                                              2

       Normalised Cartesian orbitals:

                        Set   Shell   Orbital            Exponent    Coefficient

                          1       1    1s                0.123000       0.000000
                                                         0.245881       0.059902
                                                         0.536420       0.265853
                                                         1.235135       0.208956
                                                         3.210345      -0.057750

                          1       2    2s                0.123000      -0.253465
                                                         0.245881       0.187097
                                                         0.536420       0.063592
                                                         1.235135       0.074938
                                                         3.210345       0.000000

                          1       3    2px               0.123000       0.000000
                                                         0.245881       0.025102
                                                         0.536420       0.278668
                                                         1.235135       0.775885
                                                         3.210345       1.065175
                          1       3    2py               0.123000       0.000000
                                                         0.245881       0.025102
                                                         0.536420       0.278668
                                                         1.235135       0.775885
                                                         3.210345       1.065175
                          1       3    2pz               0.123000       0.000000
                                                         0.245881       0.025102
                                                         0.536420       0.278668
                                                         1.235135       0.775885
                                                         3.210345       1.065175

                          1       4    3px               0.123000       0.048536
                                                         0.245881       0.257066
                                                         0.536420      -0.539300
                                                         1.235135      -0.153605
                                                         3.210345       0.000000
                          1       4    3py               0.123000       0.048536
                                                         0.245881       0.257066
                                                         0.536420      -0.539300
                                                         1.235135      -0.153605
                                                         3.210345       0.000000
                          1       4    3pz               0.123000       0.048536
                                                         0.245881       0.257066
                                                         0.536420      -0.539300
                                                         1.235135      -0.153605
                                                         3.210345       0.000000

                          1       5    3dx2              0.123000       0.022065
                                                         0.245881       0.038414
                                                         0.536420       0.100211
                                                         1.235135       0.626583
                                                         3.210345       0.000000
                          1       5    3dxy              0.123000       0.038217
                                                         0.245881       0.066534
                                                         0.536420       0.173571
                                                         1.235135       1.085274
                                                         3.210345       0.000000
                          1       5    3dxz              0.123000       0.038217
                                                         0.245881       0.066534
                                                         0.536420       0.173571
                                                         1.235135       1.085274
                                                         3.210345       0.000000
                          1       5    3dy2              0.123000       0.022065
                                                         0.245881       0.038414
                                                         0.536420       0.100211
                                                         1.235135       0.626583
                                                         3.210345       0.000000
                          1       5    3dyz              0.123000       0.038217
                                                         0.245881       0.066534
                                                         0.536420       0.173571
                                                         1.235135       1.085274
                                                         3.210345       0.000000
                          1       5    3dz2              0.123000       0.022065
                                                         0.245881       0.038414
                                                         0.536420       0.100211
                                                         1.235135       0.626583
                                                         3.210345       0.000000

                          2       1    1s                3.820341       0.253831

     AE Potential information for                                            ALL

       Description:                                       All-electron potential
                                          Krack, Parrinello, PCCP 2, 2105 (2000)

       Gaussian exponent of the core charge distribution:               8.154466
       Electronic configuration (s p d ...):                           4   4   0

  3. Atomic kind: C                                     Number of atoms:       7

     Orbital Basis Set                                         aug-SZV-MOLOPT-ae

       Number of orbital shell sets:                                           2
       Number of orbital shells:                                               6
       Number of primitive Cartesian functions:                               13
       Number of Cartesian basis functions:                                   15
       Number of spherical basis functions:                                   14
       Norm type:                                                              2

       Normalised Cartesian orbitals:

                        Set   Shell   Orbital            Exponent    Coefficient

                          1       1    2s                0.070000       0.000000
                                                         0.143687       0.040037
                                                         0.313471       0.177689
                                                         0.721783       0.139661
                                                         1.876046      -0.038599
                                                         6.036200      -0.128975
                                                        30.497239      -0.122578

                          1       2    3s                0.070000      -0.142268
                                                         0.143687       0.288819
                                                         0.313471       0.010360
                                                         0.721783       0.175994
                                                         1.876046       0.000000
                                                         6.036200       0.000000
                                                        30.497239       0.000000

                          1       3    3px               0.070000       0.000000
                                                         0.143687       0.012825
                                                         0.313471       0.142381
                                                         0.721783       0.396426
                                                         1.876046       0.544234
                                                         6.036200       0.508157
                                                        30.497239       0.384077
                          1       3    3py               0.070000       0.000000
                                                         0.143687       0.012825
                                                         0.313471       0.142381
                                                         0.721783       0.396426
                                                         1.876046       0.544234
                                                         6.036200       0.508157
                                                        30.497239       0.384077
                          1       3    3pz               0.070000       0.000000
                                                         0.143687       0.012825
                                                         0.313471       0.142381
                                                         0.721783       0.396426
                                                         1.876046       0.544234
                                                         6.036200       0.508157
                                                        30.497239       0.384077

                          1       4    4px               0.070000       0.076505
                                                         0.143687      -0.086104
                                                         0.313471       0.010230
                                                         0.721783       0.129894
                                                         1.876046       0.000000
                                                         6.036200       0.000000
                                                        30.497239       0.000000
                          1       4    4py               0.070000       0.076505
                                                         0.143687      -0.086104
                                                         0.313471       0.010230
                                                         0.721783       0.129894
                                                         1.876046       0.000000
                                                         6.036200       0.000000
                                                        30.497239       0.000000
                          1       4    4pz               0.070000       0.076505
                                                         0.143687      -0.086104
                                                         0.313471       0.010230
                                                         0.721783       0.129894
                                                         1.876046       0.000000
                                                         6.036200       0.000000
                                                        30.497239       0.000000

                          1       5    4dx2              0.070000       0.004316
                                                         0.143687       0.012639
                                                         0.313471       0.125057
                                                         0.721783       0.080411
                                                         1.876046       0.000000
                                                         6.036200       0.000000
                                                        30.497239       0.000000
                          1       5    4dxy              0.070000       0.007476
                                                         0.143687       0.021892
                                                         0.313471       0.216606
                                                         0.721783       0.139276
                                                         1.876046       0.000000
                                                         6.036200       0.000000
                                                        30.497239       0.000000
                          1       5    4dxz              0.070000       0.007476
                                                         0.143687       0.021892
                                                         0.313471       0.216606
                                                         0.721783       0.139276
                                                         1.876046       0.000000
                                                         6.036200       0.000000
                                                        30.497239       0.000000
                          1       5    4dy2              0.070000       0.004316
                                                         0.143687       0.012639
                                                         0.313471       0.125057
                                                         0.721783       0.080411
                                                         1.876046       0.000000
                                                         6.036200       0.000000
                                                        30.497239       0.000000
                          1       5    4dyz              0.070000       0.007476
                                                         0.143687       0.021892
                                                         0.313471       0.216606
                                                         0.721783       0.139276
                                                         1.876046       0.000000
                                                         6.036200       0.000000
                                                        30.497239       0.000000
                          1       5    4dz2              0.070000       0.004316
                                                         0.143687       0.012639
                                                         0.313471       0.125057
                                                         0.721783       0.080411
                                                         1.876046       0.000000
                                                         6.036200       0.000000
                                                        30.497239       0.000000

                          2       1    1s              742.737049       0.929185
                                                       136.180025       1.402437
                                                        38.098264       1.841991
                                                        13.087782       1.817278
                                                         5.082369       1.004768
                                                         2.093200       0.161650

     RI Auxiliary Basis Set             RI_aug-SZV-MOLOPT-ae_N_RI_048_s_p_d_f_g_

       Number of orbital shell sets:                                          14
       Number of orbital shells:                                              14
       Number of primitive Cartesian functions:                               14
       Number of Cartesian basis functions:                                   62
       Number of spherical basis functions:                                   48
       Norm type:                                                              2

       Normalised Cartesian orbitals:

                        Set   Shell   Orbital            Exponent    Coefficient

                          1       1    1s                0.182132       0.198701

                          2       1    7px               0.213594       0.206979
                          2       1    7py               0.213594       0.206979
                          2       1    7pz               0.213594       0.206979

                          3       1   10dx2              0.381125       0.304282
                          3       1   10dxy              0.381125       0.527033
                          3       1   10dxz              0.381125       0.527033
                          3       1   10dy2              0.381125       0.304282
                          3       1   10dyz              0.381125       0.527033
                          3       1   10dz2              0.381125       0.304282

                          4       1    2s                0.433905       0.381027

                          5       1   12fx3              0.524446       0.344573
                          5       1   12fx2y             0.524446       0.770488
                          5       1   12fx2z             0.524446       0.770488
                          5       1   12fxy2             0.524446       0.770488
                          5       1   12fxyz             0.524446       1.334524
                          5       1   12fxz2             0.524446       0.770488
                          5       1   12fy3              0.524446       0.344573
                          5       1   12fy2z             0.524446       0.770488
                          5       1   12fyz2             0.524446       0.770488
                          5       1   12fz3              0.524446       0.344573

                          6       1    8px               0.915857       1.277099
                          6       1    8py               0.915857       1.277099
                          6       1    8pz               0.915857       1.277099

                          7       1   14gx4              1.217666       1.912659
                          7       1   14gx3y             1.217666       5.060419
                          7       1   14gx3z             1.217666       5.060419
                          7       1   14gx2y2            1.217666       6.532973
                          7       1   14gx2yz            1.217666      11.315442
                          7       1   14gx2z2            1.217666       6.532973
                          7       1   14gxy3             1.217666       5.060419
                          7       1   14gxy2z            1.217666      11.315442
                          7       1   14gxyz2            1.217666      11.315442
                          7       1   14gxz3             1.217666       5.060419
                          7       1   14gy4              1.217666       1.912659
                          7       1   14gy3z             1.217666       5.060419
                          7       1   14gy2z2            1.217666       6.532973
                          7       1   14gyz3             1.217666       5.060419
                          7       1   14gz4              1.217666       1.912659

                          8       1   11dx2              1.581488       3.670921
                          8       1   11dxy              1.581488       6.358221
                          8       1   11dxz              1.581488       6.358221
                          8       1   11dy2              1.581488       3.670921
                          8       1   11dyz              1.581488       6.358221
                          8       1   11dz2              1.581488       3.670921

                          9       1    3s                1.620693       1.023730

                         10       1   13fx3              2.677157      13.496481
                         10       1   13fx2y             2.677157      30.179050
                         10       1   13fx2z             2.677157      30.179050
                         10       1   13fxy2             2.677157      30.179050
                         10       1   13fxyz             2.677157      52.271648
                         10       1   13fxz2             2.677157      30.179050
                         10       1   13fy3              2.677157      13.496481
                         10       1   13fy2z             2.677157      30.179050
                         10       1   13fyz2             2.677157      30.179050
                         10       1   13fz3              2.677157      13.496481

                         11       1    4s                5.999661       2.732154

                         12       1    9px               9.284861      23.102519
                         12       1    9py               9.284861      23.102519
                         12       1    9pz               9.284861      23.102519

                         13       1    5s               22.224963       7.295262

                         14       1    6s               82.329769      19.479498

       Atomic covalent radius [Angstrom]:                                  0.770

       Atomic van der Waals radius [Angstrom]:                             1.700

     The atoms of this atomic kind are PAW atoms (GAPW):
[...]
 mp_sendrecv_dv                   10586 10.0    0.621    0.668    0.621    0.668
 compute_V_xc                         1  7.0    0.000    0.000    0.654    0.654
 cp2k_distribution_to_z_slices       67  9.0    0.251    0.280    0.618    0.645
 mp_sum_dv                         5901  8.7    0.583    0.640    0.583    0.640
 mp_isend_dv                      18144 13.4    0.251    0.596    0.251    0.596
 parallel_gemm_fm                   316  8.3    0.000    0.000    0.555    0.589
 parallel_gemm_fm_cosma             316  9.3    0.555    0.589    0.555    0.589
 fm_write                           121  9.0    0.005    0.210    0.391    0.577
 eigensolver_symm                    66  6.0    0.004    0.005    0.551    0.553
 dbt_tas_mm_2                       148 15.1    0.000    0.000    0.544    0.544
 parallel_gemm_cfm                  283 10.4    0.000    0.000    0.527    0.537
 parallel_gemm_cfm_cosma            283 11.4    0.527    0.537    0.527    0.537
 rs_grid_zero                       337 11.2    0.495    0.531    0.495    0.531
 dbt_tas_distribution_new          1420 14.4    0.280    0.303    0.511    0.528
 rs_gather_matrices                  67 10.0    0.002    0.004    0.437    0.510
 write_matrix                        91  8.0    0.000    0.000    0.355    0.509
 pw_poisson_set                      68  9.0    0.001    0.001    0.460    0.486
 dbt_tas_estimate_result_nze        201 12.9    0.038    0.053    0.482    0.482
 pw_copy_to_array                   667 11.8    0.395    0.481    0.395    0.481
 grid_integrate_task_list            67 10.0    0.065    0.477    0.065    0.477
 cp_fm_diag_elpa                     72  7.1    0.000    0.000    0.473    0.476
 fft_wrap_pw1pw2_90                 134 10.5    0.021    0.022    0.445    0.472
 cp_fm_diag_elpa_base                72  8.1    0.459    0.462    0.467    0.467
 compute_cfm_W_ikp_freq_j            30 10.0    0.001    0.001    0.458    0.462
 pw_poisson_rebuild                  67  9.0    0.000    0.000    0.442    0.459
 ps_wavelet_create                    1 10.0    0.000    0.000    0.442    0.459
 RS_z_slice_distribution              1 11.0    0.254    0.348    0.442    0.459
 dbt_tas_create_split              1366 15.1    0.001    0.001    0.447    0.459
 dbt_tas_create_split_rows_or_c    1366 16.1    0.003    0.004    0.445    0.457
 copy_dbcsr_to_fm                   260  8.5    0.003    0.003    0.420    0.453
 mp_isend_dm3                      2424 11.5    0.099    0.448    0.099    0.448
 dbm_redistribute                   450 13.7    0.345    0.443    0.345    0.443
 cp_fm_write_unformatted            125  9.9    0.395    0.400    0.398    0.422
 pw_copy_from_array                 731 12.1    0.343    0.410    0.343    0.410
 check_sparsity_3c                    1  7.0    0.000    0.000    0.396    0.396
 fm_to_local_tensor                 152  8.0    0.001    0.002    0.380    0.383
 dbcsr_complete_redistribute        544  9.5    0.016    0.020    0.371    0.379
 convert_to_new_pgrid              1206 14.4    0.075    0.114    0.317    0.368
 reshape_mm_small                   402 14.4    0.027    0.028    0.343    0.350
 G_occ_vir                          121  8.0    0.001    0.005    0.318    0.348
 pw_integral_ab_c1d_c1d_gs           67  9.0    0.294    0.299    0.324    0.334
 transfer_pw2rs_10                   67 12.0    0.108    0.115    0.318    0.328
 pw_axpy                            665  9.3    0.299    0.324    0.299    0.324
 mp_bcast_dm                       2011  9.0    0.288    0.296    0.288    0.296
 qs_energies_init_hamiltonians        1  3.0    0.000    0.000    0.291    0.291
 build_core_hamiltonian_matrix        1  4.0    0.000    0.000    0.289    0.289
 overlap_condnum                      1  5.0    0.000    0.000    0.286    0.288
 get_Sigma_x                          1  7.0    0.000    0.000    0.272    0.272
 compute_Sigma_x                      1  8.0    0.000    0.000    0.272    0.272
 calculate_dm_sparse                 66  6.0    0.000    0.000    0.197    0.272
 cp_dbcsr_plus_fm_fm_t               66  7.0    0.001    0.001    0.197    0.271
 arnoldi_conjugate_gradient           5  6.0    0.006    0.007    0.267    0.267
 transfer_rs2pw_10                   67  9.0    0.068    0.072    0.226    0.259
 reshape_mm_compatible              402 14.4    0.004    0.005    0.248    0.255
 mp_sum_l                          2972 12.1    0.195    0.250    0.195    0.250
 calculate_rho_atom_coeff            67  6.0    0.029    0.036    0.248    0.248
 mp_cart_create                    2825 14.6    0.233    0.240    0.235    0.242
 init_scf_run                         1  3.0    0.000    0.000    0.234    0.234
 change_split                       603 14.9    0.002    0.002    0.226    0.233
 dbcsr_desymmetrize_deep            266  9.5    0.004    0.005    0.196    0.229
 scf_env_initial_rho_setup            1  4.0    0.000    0.000    0.224    0.224
 dbt_tas_mm_1N                      108 15.5    0.000    0.000    0.175    0.223
 dbt_copy                           420 10.0    0.002    0.003    0.184    0.223
 dbt_create_matrix                  152  9.0    0.001    0.001    0.213    0.215
 dbt_tas_mm_3N                       48 15.5    0.000    0.000    0.179    0.199
 dbcsr_multiply_generic              66  8.0    0.002    0.003    0.125    0.198
 mp_comm_split_direct              1368 17.1    0.191    0.192    0.191    0.192
 dbt_distribution_new_expert        316 10.5    0.002    0.002    0.192    0.192
 dbt_reshape                        256 10.9    0.059    0.066    0.149    0.188
 pw_zero                            398 10.3    0.177    0.187    0.177    0.187
 qs_init_subsys                       1  2.0    0.001    0.001    0.186    0.187
 dbt_tas_reshape                    505 14.6    0.004    0.004    0.137    0.184
 compute_QP_energies                  1  7.0    0.000    0.000    0.183    0.183
 qs_env_setup                         1  3.0    0.000    0.000    0.182    0.183
 qs_env_rebuild_pw_env                2  3.5    0.000    0.000    0.181    0.183
 pw_env_rebuild                       1  5.0    0.000    0.000    0.181    0.183
 scale_and_distribute               134 10.0    0.060    0.181    0.060    0.181
 multiply_fm_W_MIC_time_with_Mi       2  9.0    0.000    0.000    0.180    0.181
 mp_waitall_2                      2436 16.1    0.117    0.178    0.117    0.178
 dbt_tas_mm_3T                       98 15.5    0.000    0.000    0.140    0.175
 mp_irecv_dv                      17687 13.4    0.018    0.173    0.018    0.173
 pw_grid_setup                        4  6.0    0.000    0.000    0.162    0.164
 pw_grid_setup_internal               4  7.0    0.002    0.003    0.162    0.164
 Vh_1c_gg_integrals                  67  8.0    0.012    0.109    0.150    0.162
 copy_fm_to_dbcsr                   284  8.5    0.001    0.001    0.154    0.161
 dbcsr_sym_matrix_vector_mult      1875  7.0    0.013    0.014    0.154    0.161
 mp_comm_dup                       1169 17.5    0.138    0.154    0.139    0.154
 to_ikp_and_mo                       62  8.0    0.000    0.000    0.150    0.150
 mp_alltoall_i11v                  1898 10.5    0.148    0.148    0.148    0.148
 fm_Gamma_ao_to_cfm_ikp_mo           62  9.0    0.000    0.000    0.147    0.148
 mp_alltoall_i22                    810 10.5    0.106    0.145    0.106    0.145
 multiply_cannon                     66  9.0    0.004    0.004    0.066    0.139
 dbt_tas_replicate                  402 14.4    0.022    0.026    0.128    0.135
 multiply_cannon_loop                66 10.0    0.004    0.004    0.056    0.129
 update_ks_atom                      67  8.0    0.022    0.035    0.110    0.126
 mp_isendrecv_dv                  21172 12.0    0.032    0.123    0.032    0.123
 dbt_tas_communicate_buffer         907 16.5    0.008    0.009    0.081    0.123
 fft_wrap_pw1pw2_30                 134 10.5    0.004    0.004    0.118    0.123
 self_consistency_check              66  5.0    0.000    0.000    0.080    0.121
 mp_max_d                            73  7.0    0.080    0.121    0.080    0.121
 cp_sm_mix                           66  6.0    0.000    0.000    0.080    0.120
 dbcsr_add_d                       3762  8.0    0.002    0.002    0.034    0.118
 dbcsr_add_anytype                 3762  9.0    0.004    0.015    0.032    0.116
 pw_grid_sort                         4  8.0    0.082    0.085    0.111    0.116
 multiply_cannon_metrocomm3        1320 11.0    0.002    0.002    0.034    0.116
 check_for_restart_files              1  7.0    0.087    0.113    0.087    0.113
 mp_max_i                           950  6.4    0.088    0.112    0.088    0.112
 setup_time_and_frequency_minim       1  7.0    0.000    0.000    0.099    0.108
 create_qs_kind_set                   1  2.0    0.000    0.000    0.107    0.108
 read_qs_kind                         4  3.0    0.044    0.054    0.107    0.108
 dbt_communicate_buffer             256 11.9    0.001    0.002    0.066    0.105
 cp_cfm_cholesky_decompose           35 10.7    0.100    0.101    0.100    0.101
 multiply_cannon_metrocomm1        1320 11.0    0.000    0.001    0.008    0.096
 cp_cfm_cholesky_invert              31 11.0    0.092    0.095    0.092    0.095
 calculate_rho0_atom                268  9.0    0.092    0.094    0.092    0.094
 dbcsr_finalize                    6590 11.3    0.011    0.024    0.046    0.091
 mp_alltoall_i                     1662 14.3    0.081    0.087    0.081    0.087
 multiply_cannon_metrocomm4        1254 11.0    0.002    0.002    0.005    0.083
 dbt_create_new                     158 10.0    0.001    0.002    0.080    0.081
 compute_fm_chi_Gamma_freq           30 10.0    0.000    0.000    0.075    0.080
 dbt_tas_reshape_communicate_bu     505 15.6    0.001    0.002    0.036    0.079
 fill_fm_Sigma_c_Gamma_time           1  8.0    0.000    0.000    0.078    0.078
 integrate_four_center_load          67 10.0    0.000    0.000    0.038    0.077
 hfx_load_balance                     1 11.0    0.000    0.000    0.038    0.077
 cp_fm_power                          3  8.7    0.001    0.001    0.076    0.076
 mp_send_dv                         125 10.9    0.002    0.073    0.002    0.073
 dbt_tas_copy                       331 13.6    0.038    0.045    0.059    0.073
 mp_cart_sub                        536 10.5    0.071    0.071    0.071    0.071
 hfx_load_balance_range               1 12.0    0.000    0.000    0.031    0.070
 dbm_reserve_blocks                2411 15.8    0.051    0.066    0.051    0.066
 parser_read_line                 19477  4.0    0.003    0.003    0.063    0.064
 hybrid_alltoall_any                398 11.0    0.002    0.002    0.062    0.064
 dbt_tas_reserve_blocks_index      2009 14.8    0.002    0.002    0.049    0.063
 parser_read_line_low                33  5.0    0.001    0.017    0.060    0.061
 broadcast_input_information         33  6.0    0.005    0.006    0.059    0.060
 dbcsr_col_vec_to_rep_row          1875  8.0    0.006    0.007    0.052    0.060
 fft_wrap_pw1pw2_10                 134 10.5    0.001    0.001    0.056    0.059
 dbt_tas_reshape_buffer_obtain      505 15.6    0.037    0.044    0.048    0.057
 pw_scale                           265  9.5    0.037    0.056    0.037    0.056
 cp_cfm_geeig                         2  7.0    0.000    0.000    0.054    0.055
 vxc_of_r_new                       396  9.0    0.001    0.008    0.003    0.054
 dbt_tas_merge                      148 14.1    0.012    0.014    0.046    0.054
 mp_rank_compare                   1398 13.0    0.041    0.053    0.041    0.053
 dbt_pgrid_create_expert            320 11.5    0.001    0.001    0.047    0.050
 dbcsr_rep_row_to_rep_col_vec      1875  8.0    0.005    0.005    0.035    0.049
 rs_scatter_matrices                 67  7.0    0.001    0.001    0.048    0.048
 dbm_add                            402 14.4    0.030    0.048    0.030    0.048
 make_m2s                           132  9.0    0.002    0.002    0.044    0.046
 scf_post_calculation_gpw             1  3.0    0.000    0.000    0.045    0.045
 write_available_results              1  4.0    0.000    0.000    0.045    0.045
 write_mo_free_results                1  5.0    0.004    0.005    0.045    0.045
 dos_pdos_ldos                        1  5.0    0.000    0.000    0.035    0.045
 write_mo_set_to_restart             66  5.0    0.001    0.011    0.012    0.044
 dbcsr_iterator_start             27993  9.2    0.024    0.033    0.028    0.042
 mp_bcast_dv                       1875  9.0    0.034    0.041    0.034    0.041
 mp_bcast_i_src                     132  7.0    0.034    0.041    0.034    0.041
 dbcsr_merge_all                   4866 12.4    0.016    0.031    0.022    0.040
 build_3c_integrals_put_dbcsr      1904 10.6    0.014    0.038    0.014    0.038
 get_l_sq_wghts_cos_tf_t_to_w         1  8.0    0.035    0.038    0.035    0.038
 get_l_sq_wghts_sin_tf_t_to_w         1  8.0    0.034    0.037    0.034    0.037
 dbt_tas_replicate_alltoall         254 15.5    0.000    0.000    0.029    0.036
 cp_fm_symm                          66  7.0    0.033    0.036    0.033    0.036
 integrate_four_center_dist_KS       67 10.0    0.005    0.006    0.034    0.035
 dbt_tas_reshape_buffer_fill        505 15.6    0.028    0.035    0.028    0.035
 mp_irecv_dm3                      2424 11.5    0.012    0.035    0.012    0.035
 get_l_sq_wghts_cos_tf_w_to_t         1  8.0    0.029    0.032    0.031    0.034
 write_mo_set_low                     4  6.0    0.000    0.000    0.012    0.033
 sort_shells                          4  9.0    0.029    0.033    0.029    0.033
 dbt_tas_merge_communicate_buff     148 15.1    0.001    0.001    0.025    0.032
 mp_sum_i                           562 14.1    0.030    0.032    0.030    0.032
 dbcsr_work_create                 5528 11.4    0.009    0.022    0.013    0.031
 integrate_four_center_getP          67 10.0    0.005    0.006    0.029    0.031
 dbt_tas_reserve_blocks_templat     733 14.2    0.002    0.002    0.024    0.031
 dbt_tas_mp_comm                    201 12.9    0.001    0.001    0.029    0.030
 dbt_tas_replicate_communicate_     254 15.5    0.001    0.001    0.022    0.030
 mixing_init                          1  5.0    0.027    0.029    0.028    0.029
 global_matrix_to_local_matrix      152  9.0    0.001    0.001    0.025    0.028
 dbt_reserve_blocks_index           771 12.3    0.001    0.001    0.021    0.027
 RI_2c_integral_mat                   4  9.8    0.000    0.000    0.025    0.026
 dbcsr_copy                        8216  7.7    0.014    0.017    0.023    0.026
 dbt_nd_mp_comm                     152 10.0    0.000    0.000    0.023    0.025
 mp_recv_dv                        2755 10.9    0.000    0.024    0.000    0.024
 mp_bcast_am_src                     33  7.0    0.018    0.023    0.019    0.023
 dbt_tas_reshape_alltoall           505 15.6    0.000    0.000    0.020    0.023
 local_dbt_to_global_mat             91  8.0    0.000    0.000    0.021    0.023
 mp_maxloc_dv                      1619  1.0    0.019    0.022    0.019    0.022
 offload_free_buffer                 75  8.4    0.014    0.022    0.014    0.022
 dbcsr_iterator_stop              27993  9.2    0.014    0.019    0.016    0.022
 hirshfeld_integration                1  6.0    0.001    0.007    0.022    0.022
 compute_MinvVsqrt_Vsqrt              1  9.0    0.000    0.000    0.021    0.021
 dbcsr_work_destroy_all            5528 12.3    0.007    0.015    0.009    0.021
 xc_pw_smooth                        66 10.0    0.000    0.000    0.020    0.021
 dbt_crop                           194 11.0    0.012    0.015    0.018    0.021
 dbcsr_create_new                 11516  9.2    0.014    0.015    0.019    0.020
 pw_grid_remap                        4  8.0    0.003    0.004    0.015    0.020
 make_images                        132 10.0    0.003    0.004    0.019    0.020
 alloc_block_3c                     139 10.5    0.004    0.006    0.015    0.019
 calculate_hirshfeld_normalizat       1  6.0    0.001    0.007    0.017    0.018
 mp_sum_im3                           6  9.5    0.013    0.017    0.013    0.017
 dbcsr_crop_matrix                  396 10.0    0.001    0.001    0.016    0.017
 local_matrix_to_global_matrix       91  9.0    0.000    0.000    0.015    0.017
 create_and_init_bs_env               1  5.0    0.000    0.000    0.017    0.017
 compute_max_radius                   1  6.0    0.015    0.016    0.015    0.016
 dbt_reserve_blocks_index_array     480 11.9    0.001    0.001    0.013    0.016
 pw_grid_assign                       4  8.0    0.013    0.014    0.014    0.015
 create_fast_row_vec_access        3750  8.0    0.007    0.010    0.011    0.015
 dbcsr_data_new                   53753 11.7    0.008    0.014    0.008    0.014
 mp_bcast_b_src                     138  7.6    0.011    0.014    0.011    0.014
 send_sizes_1                       152 10.0    0.000    0.000    0.012    0.014
 dbcsr_filter_anytype               711  9.9    0.002    0.002    0.012    0.013
 mp_comm_free                      5949 13.6    0.012    0.013    0.012    0.013
 dbcsr_data_release               86481 11.3    0.009    0.013    0.009    0.013
 dbcsr_copy_submatrix               396 11.0    0.002    0.002    0.012    0.013
 delete_unnecessary_files             1  8.0    0.000    0.000    0.000    0.013
 mp_bcast_av                        810  1.0    0.004    0.006    0.011    0.013
 safe_delete                         60  9.0    0.000    0.012    0.000    0.012
 restraint_control                    1  2.0    0.000    0.000    0.012    0.012
 write_dos_pdos                       2  6.0    0.000    0.012    0.000    0.012
 diagonalize_ks_matrix                1  6.0    0.000    0.000    0.012    0.012
 cp_fm_geeig_canon                    1  7.0    0.000    0.000    0.012    0.012
 mp_sum_iv                           31  7.5    0.009    0.012    0.009    0.012
 MIC_contribution_from_ikp           30 10.0    0.004    0.009    0.005    0.012
 create_fast_col_vec_access        3750  8.0    0.007    0.007    0.011    0.011
 cp_cfm_uplo_to_full                 31 11.0    0.000    0.001    0.006    0.011
 mp_bcast_i                        1954 12.6    0.009    0.011    0.009    0.011
 make_images_sizes                  132 11.0    0.000    0.000    0.009    0.011
 mp_alltoall_i44                    132 12.0    0.009    0.011    0.009    0.011
 cp_cfm_transpose                    31 12.0    0.006    0.011    0.006    0.011
 dbm_copy                           504 16.2    0.009    0.011    0.009    0.011
 cfm_ikp_from_fm_Gamma               97  9.8    0.005    0.010    0.005    0.010
 mp_sum_im                           10  8.6    0.008    0.010    0.008    0.010
 external_control                    66  5.0    0.000    0.008    0.010    0.010
 hfx_create                           1  2.0    0.009    0.010    0.009    0.010
 dbcsr_iterator_seek              27993 10.2    0.005    0.010    0.005    0.010
 compute_proj_mo_on_kind              1  6.0    0.000    0.000    0.009    0.010
 cp_fm_uplo_to_full                  75  9.1    0.008    0.009    0.008    0.009
 -------------------------------------------------------------------------------

 The number of warnings for this run is : 1
 
 -------------------------------------------------------------------------------
  **** **** ******  **  PROGRAM ENDED AT                 2025-05-30 11:30:23.931
 ***** ** ***  *** **   PROGRAM RAN ON                     n2cn0250.ab2021.local
 **    ****   ******    PROGRAM RAN BY                                  metdyn02
 ***** **    ** ** **   PROGRAM PROCESS ID                               1603809
  **** **  *******  **  PROGRAM STOPPED IN /scratch/hpc-prf-metdyn/metdyn02_Remi
                                           /10_MOL/05_MOL_low_scal/05_MOL/aUKBqs
                                           EOTmq69kFe5R_nOg/5k_set_final_qzvp/WE
                                           BNAU/SZV/1e-5/7.0
