SIRIUS 7.5.2, git hash: https://api.github.com/repos/electronic-structure/SIRIUS/git/ref/tags/v7.5.2
 DBCSR| CPU Multiplication driver                                           XSMM (U)
 DBCSR| Multrec recursion limit                                              512 (U)
 DBCSR| Multiplication stack size                                           1000 (D)
 DBCSR| Maximum elements for images                                    UNLIMITED (U)
 DBCSR| Multiplicative factor virtual images                                   1 (U)
 DBCSR| Use multiplication densification                                       T (D)
 DBCSR| Multiplication size stacks                                             3 (U)
 DBCSR| Use memory pool for CPU allocation                                     F (U)
 DBCSR| Number of 3D layers                                               SINGLE (U)
 DBCSR| Use MPI memory allocation                                              F (U)
 DBCSR| Use RMA algorithm                                                      F (U)
 DBCSR| Use Communication thread                                               T (U)
 DBCSR| Communication thread load                                             75 (D)
 DBCSR| MPI: My process id                                                     0
 DBCSR| MPI: Number of processes                                             192
 DBCSR| OMP: Current number of threads                                         4
 DBCSR| OMP: Max number of threads                                             4
 DBCSR| Split modifier for TAS multiplication algorithm                  1.0E+00 (U)


  **** **** ******  **  PROGRAM STARTED AT               2025-03-16 03:31:23.491
 ***** ** ***  *** **   PROGRAM STARTED ON                              n2cn0582
 **    ****   ******    PROGRAM STARTED BY                              metdyn02
 ***** **    ** ** **   PROGRAM PROCESS ID                               2038593
  **** **  *******  **  PROGRAM STARTED IN /scratch/hpc-prf-metdyn/metdyn02_Remi
                                           /10_MOL/05_MOL/aUKBqsEOTmq69kFe5R_nOg
                                           /5k_set_final_qzvp/MIYFEF/TZVP/GW+BSE
                                           /RILIM

 CP2K| version string:                 CP2K version 2025.1 (Development Version)
 CP2K| source code revision number:                                  git:f0c7327
 CP2K| cp2kflags: omp libint fftw3 libxc libgrpp elpa parallel scalapack mpi_f08
 CP2K|             cosma xsmm plumed2 spglib sirius libvori libbqb libvdwxc hdf5
 CP2K| is freely available from                            https://www.cp2k.org/
 CP2K| Program compiled at                          Wed Mar 12 18:25:30 CET 2025
 CP2K| Program compiled on                                              n2login1
 CP2K| Program compiled for                                                local
 CP2K| Data directory path    /opt/software/pc2/EB-SW/software/CP2K/2024.1-foss-
 CP2K| Input file name                                                    GW.inp

 GLOBAL| Force Environment number                                              1
 GLOBAL| Basis set file name            /scratch/hpc-prf-metdyn/metdyn02_Remi/BA
 GLOBAL| Potential file name            /pc2/groups/hpc-prf-metdyn/metdyn02_Remi
 GLOBAL| MM Potential file name                                     MM_POTENTIAL
 GLOBAL| Coordinate file name                                      __STD_INPUT__
 GLOBAL| Method name                                                        CP2K
 GLOBAL| Project name                                                       MoS2
 GLOBAL| Run type                                                         ENERGY
 GLOBAL| FFT library                                                       FFTW3
 GLOBAL| Diagonalization library                                            ELPA
 GLOBAL| DGEMM library                                                      BLAS
 GLOBAL| Minimum number of eigenvectors for ELPA usage                        16
 GLOBAL| Orthonormality check for eigenvectors                          DISABLED
 GLOBAL| Matrix multiplication library                                     COSMA
 GLOBAL| All-to-all communication in single precision                          F
 GLOBAL| FFTs using library dependent lengths                                  F
 GLOBAL| Grid backend                                                       AUTO
 GLOBAL| Global print level                                               MEDIUM
 GLOBAL| MPI I/O enabled                                                       T
 GLOBAL| Total number of message passing processes                           192
 GLOBAL| Number of threads for this process                                    4
 GLOBAL| This output is from process                                           0
 GLOBAL| OpenMP stack size per thread (OMP_STACKSIZE)                    default
 GLOBAL| CPU model name                          AMD EPYC 7763 64-Core Processor
 GLOBAL| CPUID                                                              1002

 MEMORY| system memory details [Kb]
 MEMORY|                        rank 0           min           max       average
 MEMORY| MemTotal            263899264     263899260     263899264     263899262
 MEMORY| MemFree             242573112     240573328     244408412     242351786
 MEMORY| Buffers                133320        111424        229708        163830
 MEMORY| Cached                6930144       5685736       8602524       7233646
 MEMORY| Slab                  2974872       2106412       3920408       2769181
 MEMORY| SReclaimable           732244        340840        826000        598403
 MEMORY| MemLikelyFree       250368820     249618036     250783804     250347666


 *** Fundamental physical constants (SI units) ***

 *** Literature: B. J. Mohr and B. N. Taylor,
 ***             CODATA recommended values of the fundamental physical
 ***             constants: 2006, Web Version 5.1
 ***             http://physics.nist.gov/constants

 Speed of light in vacuum [m/s]                             2.99792458000000E+08
 Magnetic constant or permeability of vacuum [N/A**2]       1.25663706143592E-06
 Electric constant or permittivity of vacuum [F/m]          8.85418781762039E-12
 Planck constant (h) [J*s]                                  6.62606896000000E-34
 Planck constant (h-bar) [J*s]                              1.05457162825177E-34
 Elementary charge [C]                                      1.60217648700000E-19
 Electron mass [kg]                                         9.10938215000000E-31
 Electron g factor [ ]                                     -2.00231930436220E+00
 Proton mass [kg]                                           1.67262163700000E-27
 Fine-structure constant                                    7.29735253760000E-03
 Rydberg constant [1/m]                                     1.09737315685270E+07
 Avogadro constant [1/mol]                                  6.02214179000000E+23
 Boltzmann constant [J/K]                                   1.38065040000000E-23
 Atomic mass unit [kg]                                      1.66053878200000E-27
 Bohr radius [m]                                            5.29177208590000E-11

 *** Conversion factors ***

 [u] -> [a.u.]                                              1.82288848426455E+03
 [Angstrom] -> [Bohr] = [a.u.]                              1.88972613288564E+00
 [a.u.] = [Bohr] -> [Angstrom]                              5.29177208590000E-01
 [a.u.] -> [s]                                              2.41888432650478E-17
 [a.u.] -> [fs]                                             2.41888432650478E-02
 [a.u.] -> [J]                                              4.35974393937059E-18
 [a.u.] -> [N]                                              8.23872205491840E-08
 [a.u.] -> [K]                                              3.15774647902944E+05
 [a.u.] -> [kJ/mol]                                         2.62549961709828E+03
 [a.u.] -> [kcal/mol]                                       6.27509468713739E+02
 [a.u.] -> [Pa]                                             2.94210107994716E+13
 [a.u.] -> [bar]                                            2.94210107994716E+08
 [a.u.] -> [atm]                                            2.90362800883016E+08
 [a.u.] -> [eV]                                             2.72113838565563E+01
 [a.u.] -> [Hz]                                             6.57968392072181E+15
 [a.u.] -> [1/cm] (wave numbers)                            2.19474631370540E+05
 [a.u./Bohr**2] -> [1/cm]                                   5.14048714338585E+03
 

 CELL_TOP| Volume [angstrom^3]:                                     27000.000000
 CELL_TOP| Vector a [angstrom    30.000     0.000     0.000   |a| =    30.000000
 CELL_TOP| Vector b [angstrom     0.000    30.000     0.000   |b| =    30.000000
 CELL_TOP| Vector c [angstrom     0.000     0.000    30.000   |c| =    30.000000
 CELL_TOP| Angle (b,c), alpha [degree]:                                90.000000
 CELL_TOP| Angle (a,c), beta  [degree]:                                90.000000
 CELL_TOP| Angle (a,b), gamma [degree]:                                90.000000
 CELL_TOP| Numerically orthorhombic:                                         YES
 CELL_TOP| Periodicity                                                      NONE

 GENERATE|  Preliminary Number of Bonds generated:                             0
 GENERATE|  Achieved consistency in connectivity generation.

 CELL| Volume [angstrom^3]:                                         27000.000000
 CELL| Vector a [angstrom]:      30.000     0.000     0.000   |a| =    30.000000
 CELL| Vector b [angstrom]:       0.000    30.000     0.000   |b| =    30.000000
 CELL| Vector c [angstrom]:       0.000     0.000    30.000   |c| =    30.000000
 CELL| Angle (b,c), alpha [degree]:                                    90.000000
 CELL| Angle (a,c), beta  [degree]:                                    90.000000
 CELL| Angle (a,b), gamma [degree]:                                    90.000000
 CELL| Numerically orthorhombic:                                             YES
 CELL| Periodicity                                                          NONE

 CELL_REF| Volume [angstrom^3]:                                     27000.000000
 CELL_REF| Vector a [angstrom    30.000     0.000     0.000   |a| =    30.000000
 CELL_REF| Vector b [angstrom     0.000    30.000     0.000   |b| =    30.000000
 CELL_REF| Vector c [angstrom     0.000     0.000    30.000   |c| =    30.000000
 CELL_REF| Angle (b,c), alpha [degree]:                                90.000000
 CELL_REF| Angle (a,c), beta  [degree]:                                90.000000
 CELL_REF| Angle (a,b), gamma [degree]:                                90.000000
 CELL_REF| Numerically orthorhombic:                                         YES
 CELL_REF| Periodicity                                                      NONE

 *******************************************************************************
 *******************************************************************************
 **                                                                           **
 **     #####                         ##              ##                      **
 **    ##   ##            ##          ##              ##                      **
 **   ##     ##                       ##            ######                    **
 **   ##     ##  ##   ##  ##   #####  ##  ##   ####   ##    #####    #####    **
 **   ##     ##  ##   ##  ##  ##      ## ##   ##      ##   ##   ##  ##   ##   **
 **   ##  ## ##  ##   ##  ##  ##      ####     ###    ##   ######   ######    **
 **    ##  ###   ##   ##  ##  ##      ## ##      ##   ##   ##       ##        **
 **     #######   #####   ##   #####  ##  ##  ####    ##    #####   ##        **
 **           ##                                                    ##        **
 **                                                                           **
 **                                                ... make the atoms dance   **
 **                                                                           **
 **            Copyright (C) by CP2K developers group (2000-2025)             **
 **                      J. Chem. Phys. 152, 194103 (2020)                    **
 **                                                                           **
 *******************************************************************************

 DFT| Spin restricted Kohn-Sham (RKS) calculation                            RKS
 DFT| Multiplicity                                                             1
 DFT| Number of spin states                                                    1
 DFT| Charge                                                                   0
 DFT| Self-interaction correction (SIC)                                       NO
 DFT| Cutoffs: density                                              1.000000E-10
 DFT|          gradient                                             1.000000E-10
 DFT|          tau                                                  1.000000E-10
 DFT|          cutoff_smoothing_range                               0.000000E+00
 DFT| XC density smoothing                                                  NONE
 DFT| XC derivatives                                                          PW

 FUNCTIONAL| PBE:
 FUNCTIONAL| J.P.Perdew, K.Burke, M.Ernzerhof, Phys. Rev. Letter, vol. 77, n 18,
 FUNCTIONAL|  pp. 3865-3868, (1996)sx=0.750sc=1.000{spin unpolarized}           


 QS| Method:                                                                GAPW
 QS| Density plane wave grid type                        NON-SPHERICAL FULLSPACE
 QS| Number of grid levels:                                                    4
 QS| Density cutoff [a.u.]:                                                250.0
 QS| Multi grid cutoff [a.u.]: 1) grid level                               250.0
 QS|                           2) grid level                                83.3
 QS|                           3) grid level                                27.8
 QS|                           4) grid level                                 9.3
 QS| Grid level progression factor:                                          3.0
 QS| Relative density cutoff [a.u.]:                                        50.0
 QS| Interaction thresholds: eps_pgf_orb:                                1.0E-12
 QS|                         eps_filter_matrix:                          0.0E+00
 QS|                         eps_core_charge:                            1.0E-14
 QS|                         eps_rho_gspace:                             1.0E-12
 QS|                         eps_rho_rspace:                             1.0E-12
 QS|                         eps_gvg_rspace:                             1.0E-06
 QS|                         eps_ppl:                                    1.0E-02
 QS|                         eps_ppnl:                                   1.0E-08
 QS| GAPW|      One center basis from orbital basis primitives
 QS| GAPW|                   eps_fit:                                    1.0E-04
 QS| GAPW|                   eps_iso:                                    1.0E-12
 QS| GAPW|                   eps_svd:                                    1.0E-08
 QS| GAPW|                   eps_cpc:                                    1.0E-12
 QS| GAPW|   atom-r-grid: quadrature:                                     GC_LOG
 QS| GAPW|      atom-s-grid:  max l :                                          8
 QS| GAPW|      max_l_rho0 :                                                   2


 ATOMIC KIND INFORMATION

  1. Atomic kind: C                                     Number of atoms:       2

     Orbital Basis Set                                        aug-TZVP-MOLOPT-ae

       Number of orbital shell sets:                                           2
       Number of orbital shells:                                              16
       Number of primitive Cartesian functions:                               13
       Number of Cartesian basis functions:                                   71
       Number of spherical basis functions:                                   56
       Norm type:                                                              2

       Normalised Cartesian orbitals:

                        Set   Shell   Orbital            Exponent    Coefficient

                          1       1    1s                0.040000       0.000000
                                                         0.097098       0.019281
                                                         0.283960       0.027513
                                                         0.806764       0.003692
                                                         2.441624       0.446183
                                                         6.739673       1.752510
                                                        34.417212       0.637474

                          1       2    2s                0.040000       0.000000
                                                         0.097098       0.029117
                                                         0.283960       0.094997
                                                         0.806764       0.362633
                                                         2.441624      -0.104551
                                                         6.739673      -0.288836
                                                        34.417212       1.102934

                          1       3    3s                0.040000       0.000000
                                                         0.097098       0.047046
                                                         0.283960       0.169545
                                                         0.806764      -0.252838
                                                         2.441624      -0.199197
                                                         6.739673      -0.168746
                                                        34.417212      -6.120053

                          1       4    4s                0.040000       0.000000
                                                         0.097098       0.188374
                                                         0.283960      -0.341415
                                                         0.806764       0.091223
                                                         2.441624      -0.053941
                                                         6.739673      -0.401007
                                                        34.417212      -3.786931

                          1       5    5s                0.040000       0.099533
                                                         0.097098      -0.167672
                                                         0.283960      -0.126383
                                                         0.806764       0.030074
                                                         2.441624       0.000000
                                                         6.739673       0.000000
                                                        34.417212       0.000000

                          1       6    2px               0.040000       0.000000
                                                         0.097098       0.005087
                                                         0.283960       0.032186
                                                         0.806764       0.779023
                                                         2.441624       0.695625
                                                         6.739673       2.243109
                                                        34.417212       2.016536
                          1       6    2py               0.040000       0.000000
                                                         0.097098       0.005087
                                                         0.283960       0.032186
                                                         0.806764       0.779023
                                                         2.441624       0.695625
                                                         6.739673       2.243109
                                                        34.417212       2.016536
                          1       6    2pz               0.040000       0.000000
                                                         0.097098       0.005087
                                                         0.283960       0.032186
                                                         0.806764       0.779023
                                                         2.441624       0.695625
                                                         6.739673       2.243109
                                                        34.417212       2.016536

                          1       7    3px               0.040000       0.000000
                                                         0.097098       0.008084
                                                         0.283960       0.294367
                                                         0.806764      -0.188640
                                                         2.441624       0.912249
                                                         6.739673      -2.720242
                                                        34.417212       1.690366
                          1       7    3py               0.040000       0.000000
                                                         0.097098       0.008084
                                                         0.283960       0.294367
                                                         0.806764      -0.188640
                                                         2.441624       0.912249
                                                         6.739673      -2.720242
                                                        34.417212       1.690366
                          1       7    3pz               0.040000       0.000000
                                                         0.097098       0.008084
                                                         0.283960       0.294367
                                                         0.806764      -0.188640
                                                         2.441624       0.912249
                                                         6.739673      -2.720242
                                                        34.417212       1.690366

                          1       8    4px               0.040000       0.000000
                                                         0.097098       0.081068
                                                         0.283960      -0.017243
                                                         0.806764      -0.070055
                                                         2.441624      -0.855991
                                                         6.739673       1.761645
                                                        34.417212     -12.705833
                          1       8    4py               0.040000       0.000000
                                                         0.097098       0.081068
                                                         0.283960      -0.017243
                                                         0.806764      -0.070055
                                                         2.441624      -0.855991
                                                         6.739673       1.761645
                                                        34.417212     -12.705833
                          1       8    4pz               0.040000       0.000000
                                                         0.097098       0.081068
                                                         0.283960      -0.017243
                                                         0.806764      -0.070055
                                                         2.441624      -0.855991
                                                         6.739673       1.761645
                                                        34.417212     -12.705833

                          1       9    5px               0.040000       0.032085
                                                         0.097098      -0.027366
                                                         0.283960      -0.100343
                                                         0.806764      -0.020266
                                                         2.441624       0.000000
                                                         6.739673       0.000000
                                                        34.417212       0.000000
                          1       9    5py               0.040000       0.032085
                                                         0.097098      -0.027366
                                                         0.283960      -0.100343
                                                         0.806764      -0.020266
                                                         2.441624       0.000000
                                                         6.739673       0.000000
                                                        34.417212       0.000000
                          1       9    5pz               0.040000       0.032085
                                                         0.097098      -0.027366
                                                         0.283960      -0.100343
                                                         0.806764      -0.020266
                                                         2.441624       0.000000
                                                         6.739673       0.000000
                                                        34.417212       0.000000

                          1      10    3dx2              0.040000       0.000000
                                                         0.097098       0.001415
                                                         0.283960       0.015501
                                                         0.806764       0.546922
                                                         2.441624       3.763414
                                                         6.739673       4.248634
                                                        34.417212     174.894573
                          1      10    3dxy              0.040000       0.000000
                                                         0.097098       0.002451
                                                         0.283960       0.026849
                                                         0.806764       0.947296
                                                         2.441624       6.518424
                                                         6.739673       7.358850
                                                        34.417212     302.926287
                          1      10    3dxz              0.040000       0.000000
                                                         0.097098       0.002451
                                                         0.283960       0.026849
                                                         0.806764       0.947296
                                                         2.441624       6.518424
                                                         6.739673       7.358850
                                                        34.417212     302.926287
                          1      10    3dy2              0.040000       0.000000
                                                         0.097098       0.001415
                                                         0.283960       0.015501
                                                         0.806764       0.546922
                                                         2.441624       3.763414
                                                         6.739673       4.248634
                                                        34.417212     174.894573
                          1      10    3dyz              0.040000       0.000000
                                                         0.097098       0.002451
                                                         0.283960       0.026849
                                                         0.806764       0.947296
                                                         2.441624       6.518424
                                                         6.739673       7.358850
                                                        34.417212     302.926287
                          1      10    3dz2              0.040000       0.000000
                                                         0.097098       0.001415
                                                         0.283960       0.015501
                                                         0.806764       0.546922
                                                         2.441624       3.763414
                                                         6.739673       4.248634
                                                        34.417212     174.894573

                          1      11    4dx2              0.040000       0.000000
                                                         0.097098       0.001225
                                                         0.283960       0.139703
                                                         0.806764       0.323683
                                                         2.441624      -2.510108
                                                         6.739673      -4.401044
                                                        34.417212    -164.169372
                          1      11    4dxy              0.040000       0.000000
                                                         0.097098       0.002122
                                                         0.283960       0.241972
                                                         0.806764       0.560636
                                                         2.441624      -4.347634
                                                         6.739673      -7.622831
                                                        34.417212    -284.349694
                          1      11    4dxz              0.040000       0.000000
                                                         0.097098       0.002122
                                                         0.283960       0.241972
                                                         0.806764       0.560636
                                                         2.441624      -4.347634
                                                         6.739673      -7.622831
                                                        34.417212    -284.349694
                          1      11    4dy2              0.040000       0.000000
                                                         0.097098       0.001225
                                                         0.283960       0.139703
                                                         0.806764       0.323683
                                                         2.441624      -2.510108
                                                         6.739673      -4.401044
                                                        34.417212    -164.169372
                          1      11    4dyz              0.040000       0.000000
                                                         0.097098       0.002122
                                                         0.283960       0.241972
                                                         0.806764       0.560636
                                                         2.441624      -4.347634
                                                         6.739673      -7.622831
                                                        34.417212    -284.349694
                          1      11    4dz2              0.040000       0.000000
                                                         0.097098       0.001225
                                                         0.283960       0.139703
                                                         0.806764       0.323683
                                                         2.441624      -2.510108
                                                         6.739673      -4.401044
                                                        34.417212    -164.169372

                          1      12    5dx2              0.040000       0.006049
                                                         0.097098      -0.003128
                                                         0.283960       0.033814
                                                         0.806764       0.003338
                                                         2.441624       0.000000
                                                         6.739673       0.000000
                                                        34.417212       0.000000
                          1      12    5dxy              0.040000       0.010477
                                                         0.097098      -0.005418
                                                         0.283960       0.058567
                                                         0.806764       0.005781
                                                         2.441624       0.000000
                                                         6.739673       0.000000
                                                        34.417212       0.000000
                          1      12    5dxz              0.040000       0.010477
                                                         0.097098      -0.005418
                                                         0.283960       0.058567
                                                         0.806764       0.005781
                                                         2.441624       0.000000
                                                         6.739673       0.000000
                                                        34.417212       0.000000
                          1      12    5dy2              0.040000       0.006049
                                                         0.097098      -0.003128
                                                         0.283960       0.033814
                                                         0.806764       0.003338
                                                         2.441624       0.000000
                                                         6.739673       0.000000
                                                        34.417212       0.000000
                          1      12    5dyz              0.040000       0.010477
                                                         0.097098      -0.005418
                                                         0.283960       0.058567
                                                         0.806764       0.005781
                                                         2.441624       0.000000
                                                         6.739673       0.000000
                                                        34.417212       0.000000
                          1      12    5dz2              0.040000       0.006049
                                                         0.097098      -0.003128
                                                         0.283960       0.033814
                                                         0.806764       0.003338
                                                         2.441624       0.000000
                                                         6.739673       0.000000
                                                        34.417212       0.000000

                          1      13    4fx3              0.040000       0.000000
                                                         0.097098      -0.000799
                                                         0.283960       0.042127
                                                         0.806764       0.576468
                                                         2.441624       1.033755
                                                         6.739673      -2.026957
                                                        34.417212      49.427593
                          1      13    4fx2y             0.040000       0.000000
                                                         0.097098      -0.001786
                                                         0.283960       0.094199
                                                         0.806764       1.289022
                                                         2.441624       2.311546
                                                         6.739673      -4.532415
                                                        34.417212     110.523457
                          1      13    4fx2z             0.040000       0.000000
                                                         0.097098      -0.001786
                                                         0.283960       0.094199
                                                         0.806764       1.289022
                                                         2.441624       2.311546
                                                         6.739673      -4.532415
                                                        34.417212     110.523457
                          1      13    4fxy2             0.040000       0.000000
                                                         0.097098      -0.001786
                                                         0.283960       0.094199
                                                         0.806764       1.289022
                                                         2.441624       2.311546
                                                         6.739673      -4.532415
                                                        34.417212     110.523457
                          1      13    4fxyz             0.040000       0.000000
                                                         0.097098      -0.003093
                                                         0.283960       0.163158
                                                         0.806764       2.232651
                                                         2.441624       4.003716
                                                         6.739673      -7.850372
                                                        34.417212     191.432243
                          1      13    4fxz2             0.040000       0.000000
                                                         0.097098      -0.001786
                                                         0.283960       0.094199
                                                         0.806764       1.289022
                                                         2.441624       2.311546
                                                         6.739673      -4.532415
                                                        34.417212     110.523457
                          1      13    4fy3              0.040000       0.000000
                                                         0.097098      -0.000799
                                                         0.283960       0.042127
                                                         0.806764       0.576468
                                                         2.441624       1.033755
                                                         6.739673      -2.026957
                                                        34.417212      49.427593
                          1      13    4fy2z             0.040000       0.000000
                                                         0.097098      -0.001786
                                                         0.283960       0.094199
                                                         0.806764       1.289022
                                                         2.441624       2.311546
                                                         6.739673      -4.532415
                                                        34.417212     110.523457
                          1      13    4fyz2             0.040000       0.000000
                                                         0.097098      -0.001786
                                                         0.283960       0.094199
                                                         0.806764       1.289022
                                                         2.441624       2.311546
                                                         6.739673      -4.532415
                                                        34.417212     110.523457
                          1      13    4fz3              0.040000       0.000000
                                                         0.097098      -0.000799
                                                         0.283960       0.042127
                                                         0.806764       0.576468
                                                         2.441624       1.033755
                                                         6.739673      -2.026957
                                                        34.417212      49.427593

                          1      14    5fx3              0.040000       0.000092
                                                         0.097098       0.001511
                                                         0.283960      -0.094589
                                                         0.806764       0.000869
                                                         2.441624       0.000000
                                                         6.739673       0.000000
                                                        34.417212       0.000000
                          1      14    5fx2y             0.040000       0.000206
                                                         0.097098       0.003380
                                                         0.283960      -0.211507
                                                         0.806764       0.001943
                                                         2.441624       0.000000
                                                         6.739673       0.000000
                                                        34.417212       0.000000
                          1      14    5fx2z             0.040000       0.000206
                                                         0.097098       0.003380
                                                         0.283960      -0.211507
                                                         0.806764       0.001943
                                                         2.441624       0.000000
                                                         6.739673       0.000000
                                                        34.417212       0.000000
                          1      14    5fxy2             0.040000       0.000206
                                                         0.097098       0.003380
                                                         0.283960      -0.211507
                                                         0.806764       0.001943
                                                         2.441624       0.000000
                                                         6.739673       0.000000
                                                        34.417212       0.000000
                          1      14    5fxyz             0.040000       0.000357
                                                         0.097098       0.005854
                                                         0.283960      -0.366341
                                                         0.806764       0.003365
                                                         2.441624       0.000000
                                                         6.739673       0.000000
                                                        34.417212       0.000000
                          1      14    5fxz2             0.040000       0.000206
                                                         0.097098       0.003380
                                                         0.283960      -0.211507
                                                         0.806764       0.001943
                                                         2.441624       0.000000
                                                         6.739673       0.000000
                                                        34.417212       0.000000
                          1      14    5fy3              0.040000       0.000092
                                                         0.097098       0.001511
                                                         0.283960      -0.094589
                                                         0.806764       0.000869
                                                         2.441624       0.000000
                                                         6.739673       0.000000
                                                        34.417212       0.000000
                          1      14    5fy2z             0.040000       0.000206
                                                         0.097098       0.003380
                                                         0.283960      -0.211507
                                                         0.806764       0.001943
                                                         2.441624       0.000000
                                                         6.739673       0.000000
                                                        34.417212       0.000000
                          1      14    5fyz2             0.040000       0.000206
                                                         0.097098       0.003380
                                                         0.283960      -0.211507
                                                         0.806764       0.001943
                                                         2.441624       0.000000
                                                         6.739673       0.000000
                                                        34.417212       0.000000
                          1      14    5fz3              0.040000       0.000092
                                                         0.097098       0.001511
                                                         0.283960      -0.094589
                                                         0.806764       0.000869
                                                         2.441624       0.000000
                                                         6.739673       0.000000
                                                        34.417212       0.000000

                          1      15    5gx4              0.040000       0.000014
                                                         0.097098       0.001608
                                                         0.283960       0.004604
                                                         0.806764      -0.003474
                                                         2.441624       0.000000
                                                         6.739673       0.000000
                                                        34.417212       0.000000
                          1      15    5gx3y             0.040000       0.000036
                                                         0.097098       0.004255
                                                         0.283960       0.012180
                                                         0.806764      -0.009191
                                                         2.441624       0.000000
                                                         6.739673       0.000000
                                                        34.417212       0.000000
                          1      15    5gx3z             0.040000       0.000036
                                                         0.097098       0.004255
                                                         0.283960       0.012180
                                                         0.806764      -0.009191
                                                         2.441624       0.000000
                                                         6.739673       0.000000
                                                        34.417212       0.000000
                          1      15    5gx2y2            0.040000       0.000046
                                                         0.097098       0.005493
                                                         0.283960       0.015725
                                                         0.806764      -0.011865
                                                         2.441624       0.000000
                                                         6.739673       0.000000
                                                        34.417212       0.000000
                          1      15    5gx2yz            0.040000       0.000080
                                                         0.097098       0.009514
                                                         0.283960       0.027236
                                                         0.806764      -0.020551
                                                         2.441624       0.000000
                                                         6.739673       0.000000
                                                        34.417212       0.000000
                          1      15    5gx2z2            0.040000       0.000046
                                                         0.097098       0.005493
                                                         0.283960       0.015725
                                                         0.806764      -0.011865
                                                         2.441624       0.000000
                                                         6.739673       0.000000
                                                        34.417212       0.000000
                          1      15    5gxy3             0.040000       0.000036
                                                         0.097098       0.004255
                                                         0.283960       0.012180
                                                         0.806764      -0.009191
                                                         2.441624       0.000000
                                                         6.739673       0.000000
                                                        34.417212       0.000000
                          1      15    5gxy2z            0.040000       0.000080
                                                         0.097098       0.009514
                                                         0.283960       0.027236
                                                         0.806764      -0.020551
                                                         2.441624       0.000000
                                                         6.739673       0.000000
                                                        34.417212       0.000000
                          1      15    5gxyz2            0.040000       0.000080
                                                         0.097098       0.009514
                                                         0.283960       0.027236
                                                         0.806764      -0.020551
                                                         2.441624       0.000000
                                                         6.739673       0.000000
                                                        34.417212       0.000000
                          1      15    5gxz3             0.040000       0.000036
                                                         0.097098       0.004255
                                                         0.283960       0.012180
                                                         0.806764      -0.009191
                                                         2.441624       0.000000
                                                         6.739673       0.000000
                                                        34.417212       0.000000
                          1      15    5gy4              0.040000       0.000014
                                                         0.097098       0.001608
                                                         0.283960       0.004604
                                                         0.806764      -0.003474
                                                         2.441624       0.000000
                                                         6.739673       0.000000
                                                        34.417212       0.000000
                          1      15    5gy3z             0.040000       0.000036
                                                         0.097098       0.004255
                                                         0.283960       0.012180
                                                         0.806764      -0.009191
                                                         2.441624       0.000000
                                                         6.739673       0.000000
                                                        34.417212       0.000000
                          1      15    5gy2z2            0.040000       0.000046
                                                         0.097098       0.005493
                                                         0.283960       0.015725
                                                         0.806764      -0.011865
                                                         2.441624       0.000000
                                                         6.739673       0.000000
                                                        34.417212       0.000000
                          1      15    5gyz3             0.040000       0.000036
                                                         0.097098       0.004255
                                                         0.283960       0.012180
                                                         0.806764      -0.009191
                                                         2.441624       0.000000
                                                         6.739673       0.000000
                                                        34.417212       0.000000
                          1      15    5gz4              0.040000       0.000014
                                                         0.097098       0.001608
                                                         0.283960       0.004604
                                                         0.806764      -0.003474
                                                         2.441624       0.000000
                                                         6.739673       0.000000
                                                        34.417212       0.000000

                          2       1    1s            13575.369584       0.323227
                                                      2035.237517       2.062509
                                                       463.111112       2.210797
                                                       131.318553       4.954487
                                                        42.899593       1.730189
                                                        15.855102       4.257999

     RI Auxiliary Basis Set             RI_aug-TZVP-MOLOPT-ae_N_RI_094_s_p_d_f_g

       Number of orbital shell sets:                                          24
       Number of orbital shells:                                              24
       Number of primitive Cartesian functions:                               24
       Number of Cartesian basis functions:                                  121
       Number of spherical basis functions:                                   94
       Norm type:                                                              2

       Normalised Cartesian orbitals:

                        Set   Shell   Orbital            Exponent    Coefficient

                          1       1    1s                0.182375       0.198900

                          2       1   14dx2              0.216126       0.112758
                          2       1   14dxy              0.216126       0.195303
                          2       1   14dxz              0.216126       0.195303
                          2       1   14dy2              0.216126       0.112758
                          2       1   14dyz              0.216126       0.195303
                          2       1   14dz2              0.216126       0.112758

                          3       1    2s                0.278625       0.273322

                          4       1    8px               0.350543       0.384474
                          4       1    8py               0.350543       0.384474
                          4       1    8pz               0.350543       0.384474

                          5       1   15dx2              0.387364       0.313053
                          5       1   15dxy              0.387364       0.542224
                          5       1   15dxz              0.387364       0.542224
                          5       1   15dy2              0.387364       0.313053
                          5       1   15dyz              0.387364       0.542224
                          5       1   15dz2              0.387364       0.313053

                          6       1    9px               0.492520       0.588125
                          6       1    9py               0.492520       0.588125
                          6       1    9pz               0.492520       0.588125

                          7       1   20fx3              0.530875       0.354149
                          7       1   20fx2y             0.530875       0.791902
                          7       1   20fx2z             0.530875       0.791902
                          7       1   20fxy2             0.530875       0.791902
                          7       1   20fxyz             0.530875       1.371615
                          7       1   20fxz2             0.530875       0.791902
                          7       1   20fy3              0.530875       0.354149
                          7       1   20fy2z             0.530875       0.791902
                          7       1   20fyz2             0.530875       0.791902
                          7       1   20fz3              0.530875       0.354149

                          8       1   23gx4              0.547365       0.212176
                          8       1   23gx3y             0.547365       0.561366
                          8       1   23gx3z             0.547365       0.561366
                          8       1   23gx2y2            0.547365       0.724720
                          8       1   23gx2yz            0.547365       1.255253
                          8       1   23gx2z2            0.547365       0.724720
                          8       1   23gxy3             0.547365       0.561366
                          8       1   23gxy2z            0.547365       1.255253
                          8       1   23gxyz2            0.547365       1.255253
                          8       1   23gxz3             0.547365       0.561366
                          8       1   23gy4              0.547365       0.212176
                          8       1   23gy3z             0.547365       0.561366
                          8       1   23gy2z2            0.547365       0.724720
                          8       1   23gyz3             0.547365       0.561366
                          8       1   23gz4              0.547365       0.212176

                          9       1   16dx2              0.715114       0.915306
                          9       1   16dxy              0.715114       1.585357
                          9       1   16dxz              0.715114       1.585357
                          9       1   16dy2              0.715114       0.915306
                          9       1   16dyz              0.715114       1.585357
                          9       1   16dz2              0.715114       0.915306

                         10       1    3s                0.753344       0.576309

                         11       1   10px               1.063482       1.539405
                         11       1   10py               1.063482       1.539405
                         11       1   10pz               1.063482       1.539405

                         12       1   17dx2              1.313463       2.652409
                         12       1   17dxy              1.313463       4.594108
                         12       1   17dxz              1.313463       4.594108
                         12       1   17dy2              1.313463       2.652409
                         12       1   17dyz              1.313463       4.594108
                         12       1   17dz2              1.313463       2.652409

                         13       1   21fx3              1.320842       2.753398
                         13       1   21fx2y             1.320842       6.156786
                         13       1   21fx2z             1.320842       6.156786
                         13       1   21fxy2             1.320842       6.156786
                         13       1   21fxyz             1.320842      10.663866
                         13       1   21fxz2             1.320842       6.156786
                         13       1   21fy3              1.320842       2.753398
                         13       1   21fy2z             1.320842       6.156786
                         13       1   21fyz2             1.320842       6.156786
                         13       1   21fz3              1.320842       2.753398

                         14       1   24gx4              1.548328       3.703041
                         14       1   24gx3y             1.548328       9.797325
                         14       1   24gx3z             1.548328       9.797325
                         14       1   24gx2y2            1.548328      12.648292
                         14       1   24gx2yz            1.548328      21.907485
                         14       1   24gx2z2            1.548328      12.648292
                         14       1   24gxy3             1.548328       9.797325
                         14       1   24gxy2z            1.548328      21.907485
                         14       1   24gxyz2            1.548328      21.907485
                         14       1   24gxz3             1.548328       9.797325
                         14       1   24gy4              1.548328       3.703041
                         14       1   24gy3z             1.548328       9.797325
                         14       1   24gy2z2            1.548328      12.648292
                         14       1   24gyz3             1.548328       9.797325
                         14       1   24gz4              1.548328       3.703041

                         15       1    4s                2.247219       1.308110

                         16       1   18dx2              2.417521       7.714496
                         16       1   18dxy              2.417521      13.361899
                         16       1   18dxz              2.417521      13.361899
                         16       1   18dy2              2.417521       7.714496
                         16       1   18dyz              2.417521      13.361899
                         16       1   18dz2              2.417521       7.714496

                         17       1   11px               2.682426       4.893278
                         17       1   11py               2.682426       4.893278
                         17       1   11pz               2.682426       4.893278

                         18       1   22fx3              3.882270      31.145644
                         18       1   22fx2y             3.882270      69.643778
                         18       1   22fx2z             3.882270      69.643778
                         18       1   22fxy2             3.882270      69.643778
                         18       1   22fxyz             3.882270     120.626562
                         18       1   22fxz2             3.882270      69.643778
                         18       1   22fy3              3.882270      31.145644
                         18       1   22fy2z             3.882270      69.643778
                         18       1   22fyz2             3.882270      69.643778
                         18       1   22fz3              3.882270      31.145644

                         19       1   19dx2              4.573046      23.537977
                         19       1   19dxy              4.573046      40.768972
                         19       1   19dxz              4.573046      40.768972
                         19       1   19dy2              4.573046      23.537977
                         19       1   19dyz              4.573046      40.768972
                         19       1   19dz2              4.573046      23.537977

                         20       1   12px               6.990933      16.203506
                         20       1   12py               6.990933      16.203506
                         20       1   12pz               6.990933      16.203506

                         21       1    5s                7.163766       3.120801

                         22       1   13px              16.966694      49.083625
                         22       1   13py              16.966694      49.083625
                         22       1   13pz              16.966694      49.083625

                         23       1    6s               24.806664       7.922028

                         24       1    7s               79.332059      18.945088

       Atomic covalent radius [Angstrom]:                                  0.770

       Atomic van der Waals radius [Angstrom]:                             1.700

     The atoms of this atomic kind are PAW atoms (GAPW):
       Hard Gaussian function radius:                                      1.512
       Rho0 radius:                                                        1.512
       Maximum GTO radius used for PAW projector construction:            24.566

     GAPW Soft Basis Set                                 aug-TZVP-MOLOPT-ae_soft

       Number of orbital shell sets:                                           2
       Number of orbital shells:                                              16
       Number of primitive Cartesian functions:                                5
       Number of Cartesian basis functions:                                   71
       Number of spherical basis functions:                                   56
       Norm type:                                                              2

       Normalised Cartesian orbitals:

                        Set   Shell   Orbital            Exponent    Coefficient

                          1       1    1s                0.040000       0.000000
                                                         0.097098       0.019281
                                                         0.283960       0.027513
                                                         0.806764       0.003692
                                                         2.441624       0.446183

                          1       2    2s                0.040000       0.000000
                                                         0.097098       0.029117
                                                         0.283960       0.094997
                                                         0.806764       0.362633
                                                         2.441624      -0.104551

                          1       3    3s                0.040000       0.000000
                                                         0.097098       0.047046
                                                         0.283960       0.169545
                                                         0.806764      -0.252838
                                                         2.441624      -0.199197

                          1       4    4s                0.040000       0.000000
                                                         0.097098       0.188374
                                                         0.283960      -0.341415
                                                         0.806764       0.091223
                                                         2.441624      -0.053941

                          1       5    5s                0.040000       0.099533
                                                         0.097098      -0.167672
                                                         0.283960      -0.126383
                                                         0.806764       0.030074
                                                         2.441624       0.000000

                          1       6    2px               0.040000       0.000000
                                                         0.097098       0.005087
                                                         0.283960       0.032186
                                                         0.806764       0.779023
                                                         2.441624       0.695625
                          1       6    2py               0.040000       0.000000
                                                         0.097098       0.005087
                                                         0.283960       0.032186
                                                         0.806764       0.779023
                                                         2.441624       0.695625
                          1       6    2pz               0.040000       0.000000
                                                         0.097098       0.005087
                                                         0.283960       0.032186
                                                         0.806764       0.779023
                                                         2.441624       0.695625

                          1       7    3px               0.040000       0.000000
                                                         0.097098       0.008084
                                                         0.283960       0.294367
                                                         0.806764      -0.188640
                                                         2.441624       0.912249
                          1       7    3py               0.040000       0.000000
                                                         0.097098       0.008084
                                                         0.283960       0.294367
                                                         0.806764      -0.188640
                                                         2.441624       0.912249
                          1       7    3pz               0.040000       0.000000
                                                         0.097098       0.008084
                                                         0.283960       0.294367
                                                         0.806764      -0.188640
                                                         2.441624       0.912249

                          1       8    4px               0.040000       0.000000
                                                         0.097098       0.081068
                                                         0.283960      -0.017243
                                                         0.806764      -0.070055
                                                         2.441624      -0.855991
                          1       8    4py               0.040000       0.000000
                                                         0.097098       0.081068
                                                         0.283960      -0.017243
                                                         0.806764      -0.070055
                                                         2.441624      -0.855991
                          1       8    4pz               0.040000       0.000000
                                                         0.097098       0.081068
                                                         0.283960      -0.017243
                                                         0.806764      -0.070055
                                                         2.441624      -0.855991

                          1       9    5px               0.040000       0.032085
                                                         0.097098      -0.027366
                                                         0.283960      -0.100343
                                                         0.806764      -0.020266
                                                         2.441624       0.000000
                          1       9    5py               0.040000       0.032085
                                                         0.097098      -0.027366
                                                         0.283960      -0.100343
                                                         0.806764      -0.020266
                                                         2.441624       0.000000
                          1       9    5pz               0.040000       0.032085
                                                         0.097098      -0.027366
                                                         0.283960      -0.100343
                                                         0.806764      -0.020266
                                                         2.441624       0.000000

                          1      10    3dx2              0.040000       0.000000
                                                         0.097098       0.001415
                                                         0.283960       0.015501
                                                         0.806764       0.546922
                                                         2.441624       3.763414
                          1      10    3dxy              0.040000       0.000000
                                                         0.097098       0.002451
                                                         0.283960       0.026849
                                                         0.806764       0.947296
                                                         2.441624       6.518424
                          1      10    3dxz              0.040000       0.000000
                                                         0.097098       0.002451
                                                         0.283960       0.026849
                                                         0.806764       0.947296
                                                         2.441624       6.518424
                          1      10    3dy2              0.040000       0.000000
                                                         0.097098       0.001415
                                                         0.283960       0.015501
                                                         0.806764       0.546922
                                                         2.441624       3.763414
                          1      10    3dyz              0.040000       0.000000
                                                         0.097098       0.002451
                                                         0.283960       0.026849
                                                         0.806764       0.947296
                                                         2.441624       6.518424
                          1      10    3dz2              0.040000       0.000000
                                                         0.097098       0.001415
                                                         0.283960       0.015501
                                                         0.806764       0.546922
                                                         2.441624       3.763414

                          1      11    4dx2              0.040000       0.000000
                                                         0.097098       0.001225
                                                         0.283960       0.139703
                                                         0.806764       0.323683
                                                         2.441624      -2.510108
                          1      11    4dxy              0.040000       0.000000
                                                         0.097098       0.002122
                                                         0.283960       0.241972
                                                         0.806764       0.560636
                                                         2.441624      -4.347634
                          1      11    4dxz              0.040000       0.000000
                                                         0.097098       0.002122
                                                         0.283960       0.241972
                                                         0.806764       0.560636
                                                         2.441624      -4.347634
                          1      11    4dy2              0.040000       0.000000
                                                         0.097098       0.001225
                                                         0.283960       0.139703
                                                         0.806764       0.323683
                                                         2.441624      -2.510108
                          1      11    4dyz              0.040000       0.000000
                                                         0.097098       0.002122
                                                         0.283960       0.241972
                                                         0.806764       0.560636
                                                         2.441624      -4.347634
                          1      11    4dz2              0.040000       0.000000
                                                         0.097098       0.001225
                                                         0.283960       0.139703
[...]
 https://doi.org/10.1007/s002140050523

 J. P. Perdew, K. Burke, M. Ernzerhof.
 Phys. Rev. Lett. 77, 3865-3868 (1996).
 Generalized gradient approximation made simple.
 https://doi.org/10.1103/PhysRevLett.77.3865


 -------------------------------------------------------------------------------
 -                                                                             -
 -                                T I M I N G                                  -
 -                                                                             -
 -------------------------------------------------------------------------------
 SUBROUTINE                       CALLS  ASD         SELF TIME        TOTAL TIME
                                MAXIMUM       AVERAGE  MAXIMUM  AVERAGE  MAXIMUM
 CP2K                                 1  1.0    0.040    0.072  691.224  691.230
 qs_energies                          1  2.0    0.004    0.010  690.146  690.281
 scf_env_do_scf                       1  3.0    0.000    0.002  626.883  626.886
 scf_env_do_scf_inner_loop           64  4.0    0.002    0.004  626.882  626.886
 qs_ks_build_kohn_sham_matrix        65  7.0    0.011    0.016  598.931  599.062
 qs_ks_update_qs_env                 64  5.0    0.000    0.001  597.710  597.839
 rebuild_ks_matrix                   64  6.0    0.000    0.000  597.702  597.831
 hfx_ks_matrix                       65  8.0    0.003    0.005  512.176  512.208
 integrate_four_center               65  9.0   10.260   12.776  512.170  512.197
 integrate_four_center_main          65 10.0    4.823   81.589  275.757  387.961
 integrate_four_center_bin        11716 11.0  270.934  387.822  270.934  387.822
 mp_sync                            755  9.4  118.559  228.156  118.559  228.156
 calc_screening_functions             1 10.0  101.779  104.099  103.115  105.472
 mp2_main                             1  3.0    0.000    0.003   61.664   61.801
 mp2_gpw_main                         1  4.0    0.002    0.007   60.244   60.255
 rpa_ri_compute_en                    1  5.0    0.000    0.000   52.163   52.164
 rpa_num_int                          1  6.0    0.002    0.010   51.764   51.853
 fft_wrap_pw1pw2                   1356  9.9    0.026    0.033   36.203   39.735
 fft_wrap_pw1pw2_250                966 11.1    0.757    0.920   34.374   38.949
 fft3d_ps                          1356 11.9    4.858    6.748   33.191   36.536
 compute_GW_self_energy             100  7.0    0.001    0.002   30.790   31.603
 compute_GW_self_energy_deep        100  8.0   13.509   13.584   30.413   31.226
 mp_alltoall_z22v                  1356 13.9   26.828   29.769   26.828   29.769
 parallel_gemm_fm                   348  8.5    0.001    0.001   23.572   24.444
 parallel_gemm_fm_cosma             348  9.5   23.571   24.443   23.571   24.443
 qs_rho_update_rho_low               65  5.0    0.002    0.004   21.552   21.564
 pw_poisson_solve                    65  8.0    0.214    0.297   20.481   20.520
 mp_sum_d                          8997  6.8   14.842   20.312   14.842   20.312
 prepare_gapw_den                    65  8.0    0.001    0.002   19.862   20.290
 calculate_rho_elec                  65  6.0    0.085    0.121   19.121   19.124
 start_bse_calculation                1  7.0    0.001    0.007   18.438   18.441
 qs_vxc_create                       65  8.0    0.002    0.004   17.338   17.339
 xc_vxc_pw_create                    64  9.0    0.136    0.187   17.336   17.338
 x_to_yz                            579 12.9    0.600    1.078   14.899   16.830
 yz_to_x                            517 13.2    0.460    0.545   12.952   14.181
 calculate_rho_atom                 325  9.0    1.620   14.174    1.620   14.174
 xc_pw_derive                       384 11.0    0.003    0.003   13.346   13.783
 cp_fm_diag_elpa                     70  7.0    0.000    0.000   13.651   13.722
 cp_fm_diag_elpa_base                70  8.0   12.564   13.388   12.700   13.457
 mp_sum_dv                        25285 10.3   12.626   13.072   12.626   13.072
 density_rs2pw                       65  7.0    0.003    0.003   10.811   11.488
 calculate_vxc_atom                  65  8.0    0.042    0.338   10.613   10.614
 gaVxcgb_GC                         192  9.0    0.162   10.232    0.162   10.232
 ps_wavelet_solve                    65  9.0    3.813    5.771    9.351    9.927
 sum_up_and_integrate                65  8.0    0.002    0.005    9.397    9.822
 integrate_v_rspace                  65  9.0    0.002    0.003    9.331    9.769
 create_hermitian_form_of_ABBA        1  8.0    0.000    0.000    9.680    9.731
 potential_pw2rs                     65 10.0    0.007    0.009    9.070    9.119
 xc_rho_set_and_dset_create          64 10.0    0.167    0.204    8.039    8.950
 xc_pw_divergence                    64 10.0    0.001    0.002    8.488    8.816
 transfer_pw2rs                     326 10.6    0.006    0.008    8.022    8.582
 grid_collocate_task_list            65  7.0    7.630    8.464    7.630    8.464
 mp_waitany                       21688 11.5    7.266    8.161    7.266    8.161
 mp2_ri_gpw_compute_in                1  5.0    0.005    0.008    8.051    8.056
 mp2_ri_gpw_compute_in_loop           1  6.0    0.002    0.009    8.004    8.007
 contract_B_L                         4  7.0    0.014    0.018    6.420    7.705
 cp_fm_power                          2  7.5    0.052    0.060    7.304    7.357
 diagonalize_C                        1  8.0    0.000    0.000    7.277    7.296
 transfer_rs2pw                     326  8.4    0.008    0.013    6.721    7.059
 mp2_eri_3c_integrate                 1  7.0    0.005    0.010    1.446    6.471
 integrate_set_3c                   990  8.0    1.320    5.999    1.441    6.467
 mp_cart_create                     565  9.9    5.149    6.446    5.150    6.447
 dbt_pgrid_create_expert             84 10.8    0.000    0.019    5.119    6.417
 mp_alltoall_d54                     65 10.0    2.846    6.117    2.846    6.117
 transfer_pw2rs_250                 131 10.9    1.465    1.633    5.322    5.970
 put_rho0_on_grid                    65  9.0    0.093    0.143    5.298    5.725
 gspace_mixing                       63  5.0    0.083    0.118    5.683    5.691
 mp_sum_l                           931  6.0    2.435    5.669    2.435    5.669
 integrate_four_center_load          65 10.0    0.000    0.003    2.377    5.662
 hfx_load_balance                     1 11.0    0.001    0.004    2.377    5.660
 hfx_load_balance_range               1 12.0    0.000    0.013    2.361    5.644
 mp_alltoall_d45                     66 10.0    4.659    5.420    4.659    5.420
 transfer_rs2pw_250                 131 10.0    1.372    1.530    4.232    4.539
 integrate_vhg0_rspace               65  8.0    0.312    0.359    4.065    4.339
 fft_wrap_pw1pw2_90                 130 10.5    0.026    0.044    1.462    3.863
 mp_sum_dm                         2604  7.6    3.214    3.438    3.214    3.438
 mp_waitall_1                     62790 12.0    2.153    3.099    2.153    3.099
 powell_optimize                1434728 11.0    2.233    2.788    2.233    2.788
 calc_pair_dist_radii                 1 10.0    1.528    1.853    2.425    2.753
 mp_alltoall_d11v                  1232  9.5    2.069    2.707    2.069    2.707
 cp2k_distribution_to_z_slices       65  9.0    0.256    0.327    1.997    2.697
 broyden_mixing                      63  6.0    2.554    2.614    2.646    2.672
 calculate_rho_atom_coeff            65  6.0    0.126    0.274    2.429    2.441
 Vh_1c_gg_integrals                  65  8.0    0.023    0.881    1.242    2.295
 qs_scf_new_mos                      64  5.0    0.002    0.004    2.231    2.276
 pw_poisson_rebuild                  65  9.0    0.000    0.000    2.208    2.237
 ps_wavelet_create                    1 10.0    0.000    0.000    2.208    2.237
 RS_z_slice_distribution              1 11.0    0.193    0.218    2.208    2.237
 eigensolver_symm                    65  6.0    0.004    0.006    1.919    1.921
 transfer_pw2rs_90                   65 12.0    0.284    0.364    1.544    1.867
 rpa_num_int_RPA_matrix_operati     100  7.0    0.001    0.003    1.674    1.677
 mp_max_i                           644  2.7    0.607    1.611    0.607    1.611
 cp_fm_redistribute_end              70  8.0    0.797    1.557    0.806    1.563
 pw_integral_ab_c1d_c1d_gs           65  9.0    0.174    0.207    0.660    1.510
 rs_grid_zero                       327 11.1    1.163    1.400    1.163    1.400
 transfer_rs2pw_90                   65  9.0    0.311    0.385    1.238    1.399
 calc_mat_Q                         100  8.0    0.000    0.000    1.382    1.389
 contract_S_to_Q                    100  9.0    0.000    0.001    1.375    1.383
 xc_functional_eval                 448 10.9    0.001    0.001    0.763    1.359
 pbe_lda_eval                       448 11.9    0.762    1.358    0.762    1.358
 dbt_total                            8  8.0    0.003    0.006    1.284    1.284
 compute_vec_Sigma_x_minus_vxc_       1  4.0    0.001    0.006    1.247    1.247
 dbt_contract                         4  9.0    0.001    0.002    1.204    1.220
 pw_derive                          579 11.3    0.986    1.066    0.986    1.066
 pw_copy                            970 10.6    0.924    1.055    0.924    1.055
 transfer_rs2pw_30                   65  9.0    0.359    0.443    0.918    1.044
 transfer_pw2rs_30                   65 12.0    0.290    0.331    0.912    1.016
 create_A                             1  8.0    0.005    0.008    0.962    0.981
 qs_energies_init_hamiltonians        1  3.0    0.002    0.007    0.958    0.960
 build_core_hamiltonian_matrix        1  4.0    0.001    0.006    0.938    0.940
 overlap_condnum                      1  5.0    0.002    0.007    0.921    0.939
 mp_sendrecv_dv                   24830 10.0    0.777    0.869    0.777    0.869
 pw_gather_p                        647 11.8    0.701    0.855    0.701    0.855
 pw_scatter_p                       709 12.1    0.771    0.816    0.771    0.816
 update_ks_atom                      65  8.0    0.069    0.194    0.664    0.796
 arnoldi_conjugate_gradient           5  6.0    0.016    0.019    0.795    0.795
 dbt_copy                            12 10.1    0.000    0.000    0.726    0.774
 dbt_reshape                          8 11.6    0.027    0.032    0.671    0.721
 mp_waitall_2                        54 15.7    0.437    0.680    0.437    0.680
 calculate_rho0_atom                325  9.0    0.631    0.679    0.631    0.679
 integrate_four_center_getP          65 10.0    0.021    0.030    0.580    0.677
 dbt_communicate_buffer               8 12.6    0.001    0.001    0.631    0.670
 cp_fm_syrk                           3  7.0    0.657    0.663    0.657    0.663
 mp_isend_dv                      24254 11.8    0.383    0.662    0.383    0.662
 grid_integrate_task_list            65 10.0    0.087    0.636    0.087    0.636
 pw_poisson_set                      66  8.9    0.001    0.002    0.594    0.633
 mp_bcast_dm                       1690  9.0    0.595    0.613    0.595    0.613
 pw_copy_to_array                   647 11.8    0.459    0.607    0.459    0.607
 rs_gather_matrices                  65 10.0    0.002    0.022    0.172    0.591
 init_scf_run                         1  3.0    0.002    0.006    0.540    0.540
 create_qs_kind_set                   1  2.0    0.000    0.000    0.471    0.523
 read_qs_kind                         5  3.0    0.091    0.166    0.471    0.523
 dbcsr_sym_matrix_vector_mult      5095  7.0    0.036    0.040    0.440    0.513
 create_B                             1  8.0    0.000    0.000    0.411    0.492
 dbt_tas_multiply                     8 11.5    0.000    0.000    0.473    0.473
 dbt_tas_total                        8 12.5    0.001    0.002    0.473    0.473
 abc_contract                       990  9.0    0.121    0.468    0.121    0.468
 scf_env_initial_rho_setup            1  4.0    0.001    0.002    0.447    0.449
 fm_general_add_bse                   5 10.2    0.000    0.000    0.375    0.442
 parser_read_line                 34768  4.0    0.006    0.006    0.380    0.439
 parser_read_line_low                50  5.0    0.004    0.103    0.374    0.433
 broadcast_input_information         50  6.0    0.015    0.016    0.370    0.431
 dbt_remap                            8 10.0    0.001    0.002    0.427    0.427
 mp_isend_dm3                      2872 11.5    0.348    0.423    0.348    0.423
 create_integ_mat                     4  6.0    0.002    0.005    0.395    0.419
 pw_axpy                            645  9.3    0.339    0.418    0.339    0.418
 array2fm                             4  7.0    0.000    0.000    0.359    0.407
 mp_bcast_i_src                     200  7.0    0.321    0.388    0.321    0.388
 transfer_rs2pw_10                   65  9.0    0.106    0.135    0.325    0.378
 cp_fm_cholesky_invert              101  8.0    0.360    0.370    0.360    0.370
 integrate_four_center_dist_KS       65 10.0    0.016    0.020    0.368    0.369
 pw_copy_from_array                 709 12.1    0.267    0.350    0.267    0.350
 cp_fm_to_fm_submat_general         112 10.1    0.225    0.326    0.225    0.326
 fft_wrap_pw1pw2_30                 130 10.5    0.003    0.004    0.245    0.318
 qs_init_subsys                       1  2.0    0.019    0.046    0.299    0.302
 fm_general_add_bse_5_comm_buff       5 11.2    0.000    0.000    0.218    0.289
 communicate_buffer                   5 12.2    0.000    0.000    0.218    0.289
 topology_control                     1  2.0    0.005    0.009    0.056    0.289
 dbt_tas_dbm                          8 13.5    0.000    0.000    0.286    0.286
 mp_alltoall_z11v                   260 13.5    0.216    0.286    0.216    0.286
 transfer_pw2rs_10                   65 12.0    0.075    0.086    0.238    0.281
 connectivity_control                 1  3.0    0.045    0.268    0.049    0.279
 postprocess_bse                      1  9.0    0.000    0.000    0.247    0.272
 cp_fm_cholesky_decompose           102  9.0    0.250    0.269    0.250    0.269
 dbcsr_rep_row_to_rep_col_vec      5095  8.0    0.013    0.018    0.136    0.268
 copy_dbcsr_to_fm                    95  6.6    0.001    0.003    0.231    0.268
 dbm_multiply                         8 15.5    0.251    0.267    0.251    0.267
 dbt_tas_mm_1N                        6 14.5    0.000    0.000    0.246    0.262
 dbcsr_multiply_generic             109  8.1    0.004    0.005    0.232    0.257
 pw_zero                            386 10.3    0.227    0.252    0.227    0.252
 qs_env_setup                         1  3.0    0.001    0.004    0.238    0.252
 qs_env_rebuild_pw_env                2  3.5    0.000    0.000    0.235    0.246
 pw_env_rebuild                       1  5.0    0.003    0.009    0.235    0.246
 compute_Erpa_by_freq_int           100  8.0    0.001    0.006    0.244    0.245
 mp2_main_alloc_hfx                   1  4.0    0.106    0.243    0.106    0.243
 mp_sum_i                            21  9.7    0.138    0.240    0.138    0.240
 restraint_control                    1  2.0    0.000    0.000    0.136    0.239
 array2fm_fill                        4  8.0    0.013    0.019    0.139    0.230
 mp_bcast_am_src                     50  7.0    0.031    0.229    0.032    0.229
 cp_fm_uplo_to_full                 174  8.2    0.161    0.223    0.161    0.223
 mp_wait                            141  9.0    0.125    0.223    0.125    0.223
 cp_fm_redistribute_start            70  8.0    0.065    0.075    0.144    0.222
 mp_alltoall_i22                    324  9.2    0.177    0.216    0.177    0.216
 array2fm_isendrecv                   4  8.0    0.002    0.003    0.085    0.214
 mp_rank_compare                   1356 12.9    0.192    0.208    0.192    0.208
 dbcsr_desymmetrize_deep             97  7.5    0.004    0.008    0.164    0.199
 dbcsr_col_vec_to_rep_row          5095  8.0    0.017    0.021    0.121    0.195
 get_oscillator_strengths             1 10.0    0.000    0.000    0.190    0.190
 mp_sum_iv                          299  9.6    0.062    0.187    0.062    0.187
 dbcsr_add_d                       7692  7.0    0.003    0.004    0.026    0.169
 yz_to_xz                           130 14.0    0.009    0.015    0.121    0.167
 dbcsr_add_anytype                 7692  8.0    0.004    0.025    0.023    0.165
 dbt_nd_mp_comm                       8 11.0    0.000    0.000    0.045    0.163
 calculate_dm_sparse                 64  6.0    0.000    0.000    0.147    0.161
 cp_dbcsr_plus_fm_fm_t               64  7.0    0.001    0.001    0.146    0.160
 mp_isendrecv_dv                  49660 12.0    0.040    0.159    0.040    0.159
 multiply_cannon                    109  9.1    0.006    0.007    0.129    0.151
 xz_to_yz                           130 11.0    0.007    0.025    0.111    0.139
 mp_bcast_b_src                     135  7.1    0.083    0.136    0.083    0.136
 multiply_cannon_loop               109 10.1    0.005    0.005    0.109    0.128
 pw_grid_setup                        4  6.0    0.001    0.002    0.108    0.120
 pw_grid_setup_internal               4  7.0    0.001    0.002    0.107    0.120
 fft_wrap_pw1pw2_10                 130 10.5    0.001    0.001    0.096    0.119
 allocate_matrices_gw                 1  7.0    0.000    0.000    0.027    0.116
 compute_max_radius                   1  6.0    0.112    0.114    0.112    0.114
 get_vec_sigma_x                      1  8.0    0.000    0.000    0.025    0.113
 dbt_tas_estimate_result_nze          4 12.0    0.003    0.004    0.113    0.113
 dbcsr_complete_redistribute        227  8.4    0.017    0.024    0.094    0.106
 cp_fm_symm                          65  7.0    0.097    0.101    0.097    0.101
 dbcsr_finalize                    8908 10.4    0.004    0.029    0.023    0.099
 mp_bcast_dv                       5163  9.0    0.059    0.099    0.059    0.099
 array2fm_waitall                     4  8.0    0.000    0.000    0.020    0.099
 vxc_of_r_new                       384  9.0    0.000    0.008    0.002    0.098
 multiply_cannon_multrec           1696 11.1    0.066    0.093    0.067    0.093
 scf_post_calculation_gpw             1  3.0    0.000    0.000    0.092    0.093
 write_available_results              1  4.0    0.001    0.004    0.092    0.092
 write_mo_free_results                1  5.0    0.003    0.009    0.091    0.092
 mult_B_with_W                        1  8.0    0.000    0.000    0.067    0.084
 dbt_tas_replicate                    8 13.5    0.022    0.030    0.074    0.082
 make_m2s                           218  9.1    0.003    0.005    0.072    0.082
 array2fm_info                        4  8.0    0.062    0.076    0.066    0.079
 dbm_reserve_blocks                  72 14.2    0.056    0.078    0.056    0.078
 dbt_split_blocks_generic            20  8.8    0.025    0.032    0.071    0.074
 mp_isend_im2                       876 13.2    0.044    0.073    0.044    0.073
 rs_scatter_matrices                 65  7.0    0.001    0.004    0.007    0.073
 dbt_tas_reserve_blocks_index        64 13.1    0.001    0.001    0.049    0.072
 get_multipoles_mo                    1 10.0    0.001    0.004    0.044    0.070
 -------------------------------------------------------------------------------

 The number of warnings for this run is : 1
 
 -------------------------------------------------------------------------------
  **** **** ******  **  PROGRAM ENDED AT                 2025-03-16 03:42:57.692
 ***** ** ***  *** **   PROGRAM RAN ON                                  n2cn0582
 **    ****   ******    PROGRAM RAN BY                                  metdyn02
 ***** **    ** ** **   PROGRAM PROCESS ID                               2038593
  **** **  *******  **  PROGRAM STOPPED IN /scratch/hpc-prf-metdyn/metdyn02_Remi
                                           /10_MOL/05_MOL/aUKBqsEOTmq69kFe5R_nOg
                                           /5k_set_final_qzvp/MIYFEF/TZVP/GW+BSE
                                           /RILIM
