 DBCSR| CPU Multiplication driver                                           XSMM (U)
 DBCSR| Multrec recursion limit                                              512 (U)
 DBCSR| Multiplication stack size                                           1000 (D)
 DBCSR| Maximum elements for images                                    UNLIMITED (U)
 DBCSR| Multiplicative factor virtual images                                   1 (U)
 DBCSR| Use multiplication densification                                       T (D)
 DBCSR| Multiplication size stacks                                             3 (U)
 DBCSR| Use memory pool for CPU allocation                                     F (U)
 DBCSR| Number of 3D layers                                               SINGLE (U)
 DBCSR| Use MPI memory allocation                                              F (U)
 DBCSR| Use RMA algorithm                                                      F (U)
 DBCSR| Use Communication thread                                               T (U)
 DBCSR| Communication thread load                                             60 (D)
 DBCSR| MPI: My process id                                                     0
 DBCSR| MPI: Number of processes                                              32
 DBCSR| OMP: Current number of threads                                         8
 DBCSR| OMP: Max number of threads                                             8
 DBCSR| Split modifier for TAS multiplication algorithm                  1.0E+00 (U)


  **** **** ******  **  PROGRAM STARTED AT               2025-06-23 20:44:27.062
 ***** ** ***  *** **   PROGRAM STARTED ON                              n2cn0701
 **    ****   ******    PROGRAM STARTED BY                              metdyn02
 ***** **    ** ** **   PROGRAM PROCESS ID                                509626
  **** **  *******  **  PROGRAM STARTED IN /scratch/hpc-prf-metdyn/metdyn02_Remi
                                           /10_MOL/05_MOL/aUKBqsEOTmq69kFe5R_nOg
                                           /5k_set_final_qzvp/JIBHAD/mini-SZV/GW
                                           +BSE/RILIM

 CP2K| version string:                 CP2K version 2025.1 (Development Version)
 CP2K| source code revision number:                                  git:32ddf85
 CP2K| cp2kflags: omp libint fftw3 libxc libgrpp elpa parallel scalapack mpi_f08
 CP2K|             cosma xsmm plumed2 spglib libvori libbqb libvdwxc hdf5
 CP2K| is freely available from                            https://www.cp2k.org/
 CP2K| Program compiled at                         Mon May 19 11:32:37 CEST 2025
 CP2K| Program compiled on                                              n2login1
 CP2K| Program compiled for                                                local
 CP2K| Data directory path    /opt/software/pc2/EB-SW/software/CP2K/2024.1-foss-
 CP2K| Input file name                                                    GW.inp

 GLOBAL| Force Environment number                                              1
 GLOBAL| Basis set file name            /scratch/hpc-prf-metdyn/metdyn02_Remi/BA
 GLOBAL| Potential file name            /pc2/groups/hpc-prf-metdyn/metdyn02_Remi
 GLOBAL| MM Potential file name                                     MM_POTENTIAL
 GLOBAL| Coordinate file name                                      __STD_INPUT__
 GLOBAL| Method name                                                        CP2K
 GLOBAL| Project name                                                       MoS2
 GLOBAL| Run type                                                         ENERGY
 GLOBAL| FFT library                                                       FFTW3
 GLOBAL| Diagonalization library                                            ELPA
 GLOBAL| Cholesky decomposition library                                ScaLAPACK
 GLOBAL| DGEMM library                                                      BLAS
 GLOBAL| Minimum number of eigenvectors for ELPA usage                        16
 GLOBAL| Orthonormality check for eigenvectors                          DISABLED
 GLOBAL| Matrix multiplication library                                     COSMA
 GLOBAL| All-to-all communication in single precision                          F
 GLOBAL| FFTs using library dependent lengths                                  F
 GLOBAL| Grid backend                                                       AUTO
 GLOBAL| Global print level                                               MEDIUM
 GLOBAL| MPI I/O enabled                                                       T
 GLOBAL| Total number of message passing processes                            32
 GLOBAL| Number of threads for this process                                    8
 GLOBAL| This output is from process                                           0
 GLOBAL| OpenMP stack size per thread (OMP_STACKSIZE)                    default
 GLOBAL| CPU model name                          AMD EPYC 7763 64-Core Processor
 GLOBAL| CPUID                                                              1002

 MEMORY| system memory details [Kb]
 MEMORY|                        rank 0           min           max       average
 MEMORY| MemTotal            263897592     263897572     263897648     263897600
 MEMORY| MemFree             252059968     251004496     252059968     251506757
 MEMORY| Buffers                 80500         69828        125184        106215
 MEMORY| Cached                6609500       6609500       7651792       7143136
 MEMORY| Slab                  1760556       1303316       2091624       1795699
 MEMORY| SReclaimable           567916        331220        980648        598635
 MEMORY| MemLikelyFree       259317884     259120732     259601532     259354743


 *** Fundamental physical constants (SI units) ***

 *** Literature: B. J. Mohr and B. N. Taylor,
 ***             CODATA recommended values of the fundamental physical
 ***             constants: 2006, Web Version 5.1
 ***             http://physics.nist.gov/constants

 Speed of light in vacuum [m/s]                             2.99792458000000E+08
 Magnetic constant or permeability of vacuum [N/A**2]       1.25663706143592E-06
 Electric constant or permittivity of vacuum [F/m]          8.85418781762039E-12
 Planck constant (h) [J*s]                                  6.62606896000000E-34
 Planck constant (h-bar) [J*s]                              1.05457162825177E-34
 Elementary charge [C]                                      1.60217648700000E-19
 Electron mass [kg]                                         9.10938215000000E-31
 Electron g factor [ ]                                     -2.00231930436220E+00
 Proton mass [kg]                                           1.67262163700000E-27
 Fine-structure constant                                    7.29735253760000E-03
 Rydberg constant [1/m]                                     1.09737315685270E+07
 Avogadro constant [1/mol]                                  6.02214179000000E+23
 Boltzmann constant [J/K]                                   1.38065040000000E-23
 Atomic mass unit [kg]                                      1.66053878200000E-27
 Bohr radius [m]                                            5.29177208590000E-11

 *** Conversion factors ***

 [u] -> [a.u.]                                              1.82288848426455E+03
 [Angstrom] -> [Bohr] = [a.u.]                              1.88972613288564E+00
 [a.u.] = [Bohr] -> [Angstrom]                              5.29177208590000E-01
 [a.u.] -> [s]                                              2.41888432650478E-17
 [a.u.] -> [fs]                                             2.41888432650478E-02
 [a.u.] -> [J]                                              4.35974393937059E-18
 [a.u.] -> [N]                                              8.23872205491840E-08
 [a.u.] -> [K]                                              3.15774647902944E+05
 [a.u.] -> [kJ/mol]                                         2.62549961709828E+03
 [a.u.] -> [kcal/mol]                                       6.27509468713739E+02
 [a.u.] -> [Pa]                                             2.94210107994716E+13
 [a.u.] -> [bar]                                            2.94210107994716E+08
 [a.u.] -> [atm]                                            2.90362800883016E+08
 [a.u.] -> [eV]                                             2.72113838565563E+01
 [a.u.] -> [Hz]                                             6.57968392072181E+15
 [a.u.] -> [1/cm] (wave numbers)                            2.19474631370540E+05
 [a.u./Bohr**2] -> [1/cm]                                   5.14048714338585E+03
 

 CELL_TOP| Volume [angstrom^3]:                                     27000.000000
 CELL_TOP| Vector a [angstrom    30.000     0.000     0.000   |a| =    30.000000
 CELL_TOP| Vector b [angstrom     0.000    30.000     0.000   |b| =    30.000000
 CELL_TOP| Vector c [angstrom     0.000     0.000    30.000   |c| =    30.000000
 CELL_TOP| Angle (b,c), alpha [degree]:                                90.000000
 CELL_TOP| Angle (a,c), beta  [degree]:                                90.000000
 CELL_TOP| Angle (a,b), gamma [degree]:                                90.000000
 CELL_TOP| Numerically orthorhombic:                                         YES
 CELL_TOP| Periodicity                                                      NONE

 GENERATE|  Preliminary Number of Bonds generated:                             0
 GENERATE|  Achieved consistency in connectivity generation.

 CELL| Volume [angstrom^3]:                                         27000.000000
 CELL| Vector a [angstrom]:      30.000     0.000     0.000   |a| =    30.000000
 CELL| Vector b [angstrom]:       0.000    30.000     0.000   |b| =    30.000000
 CELL| Vector c [angstrom]:       0.000     0.000    30.000   |c| =    30.000000
 CELL| Angle (b,c), alpha [degree]:                                    90.000000
 CELL| Angle (a,c), beta  [degree]:                                    90.000000
 CELL| Angle (a,b), gamma [degree]:                                    90.000000
 CELL| Numerically orthorhombic:                                             YES
 CELL| Periodicity                                                          NONE

 CELL_REF| Volume [angstrom^3]:                                     27000.000000
 CELL_REF| Vector a [angstrom    30.000     0.000     0.000   |a| =    30.000000
 CELL_REF| Vector b [angstrom     0.000    30.000     0.000   |b| =    30.000000
 CELL_REF| Vector c [angstrom     0.000     0.000    30.000   |c| =    30.000000
 CELL_REF| Angle (b,c), alpha [degree]:                                90.000000
 CELL_REF| Angle (a,c), beta  [degree]:                                90.000000
 CELL_REF| Angle (a,b), gamma [degree]:                                90.000000
 CELL_REF| Numerically orthorhombic:                                         YES
 CELL_REF| Periodicity                                                      NONE

 *******************************************************************************
 *******************************************************************************
 **                                                                           **
 **     #####                         ##              ##                      **
 **    ##   ##            ##          ##              ##                      **
 **   ##     ##                       ##            ######                    **
 **   ##     ##  ##   ##  ##   #####  ##  ##   ####   ##    #####    #####    **
 **   ##     ##  ##   ##  ##  ##      ## ##   ##      ##   ##   ##  ##   ##   **
 **   ##  ## ##  ##   ##  ##  ##      ####     ###    ##   ######   ######    **
 **    ##  ###   ##   ##  ##  ##      ## ##      ##   ##   ##       ##        **
 **     #######   #####   ##   #####  ##  ##  ####    ##    #####   ##        **
 **           ##                                                    ##        **
 **                                                                           **
 **                                                ... make the atoms dance   **
 **                                                                           **
 **            Copyright (C) by CP2K developers group (2000-2025)             **
 **                      J. Chem. Phys. 152, 194103 (2020)                    **
 **                                                                           **
 *******************************************************************************

 DFT| Spin restricted Kohn-Sham (RKS) calculation                            RKS
 DFT| Multiplicity                                                             1
 DFT| Number of spin states                                                    1
 DFT| Charge                                                                   0
 DFT| Self-interaction correction (SIC)                                       NO
 DFT| Cutoffs: density                                              1.000000E-10
 DFT|          gradient                                             1.000000E-10
 DFT|          tau                                                  1.000000E-10
 DFT|          cutoff_smoothing_range                               0.000000E+00
 DFT| XC density smoothing                                                  NONE
 DFT| XC derivatives                                                          PW

 FUNCTIONAL| PBE:
 FUNCTIONAL| J.P.Perdew, K.Burke, M.Ernzerhof, Phys. Rev. Letter, vol. 77, n 18,
 FUNCTIONAL|  pp. 3865-3868, (1996)sx=0.750sc=1.000{spin unpolarized}           


 QS| Method:                                                                GAPW
 QS| Density plane wave grid type                        NON-SPHERICAL FULLSPACE
 QS| Number of grid levels:                                                    4
 QS| Density cutoff [a.u.]:                                                250.0
 QS| Multi grid cutoff [a.u.]: 1) grid level                               250.0
 QS|                           2) grid level                                83.3
 QS|                           3) grid level                                27.8
 QS|                           4) grid level                                 9.3
 QS| Grid level progression factor:                                          3.0
 QS| Relative density cutoff [a.u.]:                                        50.0
 QS| Interaction thresholds: eps_pgf_orb:                                1.0E-12
 QS|                         eps_filter_matrix:                          0.0E+00
 QS|                         eps_core_charge:                            1.0E-14
 QS|                         eps_rho_gspace:                             1.0E-12
 QS|                         eps_rho_rspace:                             1.0E-12
 QS|                         eps_gvg_rspace:                             1.0E-06
 QS|                         eps_ppl:                                    1.0E-02
 QS|                         eps_ppnl:                                   1.0E-08
 QS| GAPW|      One center basis from orbital basis primitives
 QS| GAPW|                   eps_fit:                                    1.0E-04
 QS| GAPW|                   eps_iso:                                    1.0E-12
 QS| GAPW|                   eps_svd:                                    1.0E-08
 QS| GAPW|                   eps_cpc:                                    1.0E-12
 QS| GAPW|   atom-r-grid: quadrature:                                     GC_LOG
 QS| GAPW|      atom-s-grid:  max l :                                          2
 QS| GAPW|      max_l_rho0 :                                                   2


 ATOMIC KIND INFORMATION

  1. Atomic kind: N                                     Number of atoms:       3

     Orbital Basis Set                                    aug-SZV-MOLOPT-ae-mini

       Number of orbital shell sets:                                           2
       Number of orbital shells:                                               5
       Number of primitive Cartesian functions:                                7
       Number of Cartesian basis functions:                                    9
       Number of spherical basis functions:                                    9
       Norm type:                                                              2

       Normalised Cartesian orbitals:

                        Set   Shell   Orbital            Exponent    Coefficient

                          1       1    1s                0.112012       0.000000
                                                         0.285714       0.194997
                                                         0.878496       0.258372
                                                         3.780455      -0.193164

                          1       2    2s                0.112012      -0.247059
                                                         0.285714       0.355178
                                                         0.878496       0.105643
                                                         3.780455      -0.000189

                          1       3    2px               0.112012       0.000000
                                                         0.285714       0.116706
                                                         0.878496       0.736703
                                                         3.780455       1.171552
                          1       3    2py               0.112012       0.000000
                                                         0.285714       0.116706
                                                         0.878496       0.736703
                                                         3.780455       1.171552
                          1       3    2pz               0.112012       0.000000
                                                         0.285714       0.116706
                                                         0.878496       0.736703
                                                         3.780455       1.171552

                          1       4    3px               0.112012       0.096580
                                                         0.285714      -0.017996
                                                         0.878496       0.000162
                                                         3.780455       0.000013
                          1       4    3py               0.112012       0.096580
                                                         0.285714      -0.017996
                                                         0.878496       0.000162
                                                         3.780455       0.000013
                          1       4    3pz               0.112012       0.096580
                                                         0.285714      -0.017996
                                                         0.878496       0.000162
                                                         3.780455       0.000013

                          2       1    1s               99.106168       3.454863
                                                        18.052312       3.341413
                                                         4.885660       1.041372

     RI Auxiliary Basis Set             RI_aug-SZV-MOLOPT-ae-mini_N_RI_047_s_p_d

       Number of orbital shell sets:                                          17
       Number of orbital shells:                                              17
       Number of primitive Cartesian functions:                               17
       Number of Cartesian basis functions:                                   52
       Number of spherical basis functions:                                   47
       Norm type:                                                              2

       Normalised Cartesian orbitals:

                        Set   Shell   Orbital            Exponent    Coefficient

                          1       1    1s                0.280030       0.274355

                          2       1    8px               0.280030       0.290366
                          2       1    8py               0.280030       0.290366
                          2       1    8pz               0.280030       0.290366

                          3       1   13dx2              0.280030       0.177426
                          3       1   13dxy              0.280030       0.307311
                          3       1   13dxz              0.280030       0.307311
                          3       1   13dy2              0.280030       0.177426
                          3       1   13dyz              0.280030       0.307311
                          3       1   13dz2              0.280030       0.177426

                          4       1    2s                0.470510       0.404890

                          5       1    9px               0.609890       0.768254
                          5       1    9py               0.609890       0.768254
                          5       1    9pz               0.609890       0.768254

                          6       1   14dx2              0.609890       0.692787
                          6       1   14dxy              0.609890       1.199942
                          6       1   14dxz              0.609890       1.199942
                          6       1   14dy2              0.609890       0.692787
                          6       1   14dyz              0.609890       1.199942
                          6       1   14dz2              0.609890       0.692787

                          7       1    3s                0.790558       0.597531

                          8       1    4s                1.328308       0.881828

                          9       1   15dx2              1.328308       2.705093
                          9       1   15dxy              1.328308       4.685358
                          9       1   15dxz              1.328308       4.685358
                          9       1   15dy2              1.328308       2.705093
                          9       1   15dyz              1.328308       4.685358
                          9       1   15dz2              1.328308       2.705093

                         10       1   10px               1.328308       2.032654
                         10       1   10py               1.328308       2.032654
                         10       1   10pz               1.328308       2.032654

                         11       1    5s                2.231842       1.301391

                         12       1   11px               2.892982       5.378018
                         12       1   11py               2.892982       5.378018
                         12       1   11pz               2.892982       5.378018

                         13       1   16dx2              2.892982      10.562447
                         13       1   16dxy              2.892982      18.294694
                         13       1   16dxz              2.892982      18.294694
                         13       1   16dy2              2.892982      10.562447
                         13       1   16dyz              2.892982      18.294694
                         13       1   16dz2              2.892982      10.562447

                         14       1    6s                3.749973       1.920575

                         15       1   17dx2              6.300758      41.242682
                         15       1   17dxy              6.300758      71.434420
                         15       1   17dxz              6.300758      71.434420
                         15       1   17dy2              6.300758      41.242682
                         15       1   17dyz              6.300758      71.434420
                         15       1   17dz2              6.300758      41.242682

                         16       1    7s                6.300758       2.834358

                         17       1   12px               6.300758      14.229221
                         17       1   12py               6.300758      14.229221
                         17       1   12pz               6.300758      14.229221

       Atomic covalent radius [Angstrom]:                                  0.750

       Atomic van der Waals radius [Angstrom]:                             1.550

     The atoms of this atomic kind are PAW atoms (GAPW):
       Hard Gaussian function radius:                                      1.512
       Rho0 radius:                                                        1.512
       Maximum GTO radius used for PAW projector construction:            24.566

     GAPW Soft Basis Set                             aug-SZV-MOLOPT-ae-mini_soft

       Number of orbital shell sets:                                           2
       Number of orbital shells:                                               5
       Number of primitive Cartesian functions:                                4
       Number of Cartesian basis functions:                                    9
       Number of spherical basis functions:                                    9
       Norm type:                                                              2

       Normalised Cartesian orbitals:

                        Set   Shell   Orbital            Exponent    Coefficient

                          1       1    1s                0.112012       0.000000
                                                         0.285714       0.194997
                                                         0.878496       0.258372
                                                         3.780455      -0.193164

                          1       2    2s                0.112012      -0.247059
                                                         0.285714       0.355178
                                                         0.878496       0.105643
                                                         3.780455      -0.000189

                          1       3    2px               0.112012       0.000000
                                                         0.285714       0.116706
                                                         0.878496       0.736703
                                                         3.780455       1.171552
                          1       3    2py               0.112012       0.000000
                                                         0.285714       0.116706
                                                         0.878496       0.736703
                                                         3.780455       1.171552
                          1       3    2pz               0.112012       0.000000
                                                         0.285714       0.116706
                                                         0.878496       0.736703
                                                         3.780455       1.171552

                          1       4    3px               0.112012       0.096580
                                                         0.285714      -0.017996
                                                         0.878496       0.000162
                                                         3.780455       0.000013
                          1       4    3py               0.112012       0.096580
                                                         0.285714      -0.017996
                                                         0.878496       0.000162
                                                         3.780455       0.000013
                          1       4    3pz               0.112012       0.096580
                                                         0.285714      -0.017996
                                                         0.878496       0.000162
                                                         3.780455       0.000013

                          2       1    1s         

     AE Potential information for                                            ALL

       Description:                                       All-electron potential
                                          Krack, Parrinello, PCCP 2, 2105 (2000)

       Gaussian exponent of the core charge distribution:               5.979100
       Electronic configuration (s p d ...):                           4   3   0

  2. Atomic kind: H                                     Number of atoms:       8

     Orbital Basis Set                                    aug-SZV-MOLOPT-ae-mini

       Number of orbital shell sets:                                           1
       Number of orbital shells:                                               4
       Number of primitive Cartesian functions:                                7
       Number of Cartesian basis functions:                                    6
       Number of spherical basis functions:                                    6
       Norm type:                                                              2

       Normalised Cartesian orbitals:

                        Set   Shell   Orbital            Exponent    Coefficient

                          1       1    1s                0.065428       0.000000
                                                         0.100112       0.016532
                                                         0.243077       0.102760
                                                         0.625955       0.185857
                                                         1.822143       0.188385
                                                         6.513144       0.143430
                                                        35.523221       0.095030

                          1       2    2s                0.065428       0.083549
                                                         0.100112       0.009605
                                                         0.243077       0.002524
                                                         0.625955       0.013457
                                                         1.822143       0.000000
                                                         6.513144       0.000000
                                                        35.523221       0.000000

                          1       3    3s                0.065428       0.037407
                                                         0.100112      -0.169070
                                                         0.243077      -0.018899
                                                         0.625955       0.012806
                                                         1.822143       0.000000
                                                         6.513144       0.000000
                                                        35.523221       0.000000

                          1       4    2px               0.065428       0.059908
                                                         0.100112      -0.023770
                                                         0.243077       0.000032
                                                         0.625955       0.017779
                                                         1.822143       0.000000
                                                         6.513144       0.000000
                                                        35.523221       0.000000
                          1       4    2py               0.065428       0.059908
                                                         0.100112      -0.023770
                                                         0.243077       0.000032
                                                         0.625955       0.017779
                                                         1.822143       0.000000
                                                         6.513144       0.000000
                                                        35.523221       0.000000
                          1       4    2pz               0.065428       0.059908
                                                         0.100112      -0.023770
                                                         0.243077       0.000032
                                                         0.625955       0.017779
                                                         1.822143       0.000000
                                                         6.513144       0.000000
                                                        35.523221       0.000000

     RI Auxiliary Basis Set             RI_aug-SZV-MOLOPT-ae_N_RI_035_s_p_d_f_g_

       Number of orbital shell sets:                                          15
       Number of orbital shells:                                              15
       Number of primitive Cartesian functions:                               15
       Number of Cartesian basis functions:                                   37
       Number of spherical basis functions:                                   35
       Norm type:                                                              2

       Normalised Cartesian orbitals:

                        Set   Shell   Orbital            Exponent    Coefficient

                          1       1    1s                0.236911       0.242019

                          2       1    8px               0.347892       0.380843
                          2       1    8py               0.347892       0.380843
                          2       1    8pz               0.347892       0.380843

                          3       1    2s                0.423897       0.374417

                          4       1    9px               0.493166       0.589089
                          4       1    9py               0.493166       0.589089
                          4       1    9pz               0.493166       0.589089

                          5       1   14dx2              0.625366       0.723843
                          5       1   14dxy              0.625366       1.253733
                          5       1   14dxz              0.625366       1.253733
                          5       1   14dy2              0.625366       0.723843
                          5       1   14dyz              0.625366       1.253733
                          5       1   14dz2              0.625366       0.723843

                          6       1   10px               0.699103       0.911206
                          6       1   10py               0.699103       0.911206
                          6       1   10pz               0.699103       0.911206

                          7       1    3s                0.758464       0.579244

                          8       1   11px               0.991036       1.409457
                          8       1   11py               0.991036       1.409457
                          8       1   11pz               0.991036       1.409457

                          9       1   15dx2              1.286053       2.556305
                          9       1   15dxy              1.286053       4.427650
                          9       1   15dxz              1.286053       4.427650
                          9       1   15dy2              1.286053       2.556305
                          9       1   15dyz              1.286053       4.427650
                          9       1   15dz2              1.286053       2.556305

                         10       1    4s                1.357095       0.896123

                         11       1   12px               1.404875       2.180155
                         11       1   12py               1.404875       2.180155
                         11       1   12pz               1.404875       2.180155

                         12       1   13px               1.991527       3.372273
                         12       1   13py               1.991527       3.372273
                         12       1   13pz               1.991527       3.372273

                         13       1    5s                2.428204       1.386354

                         14       1    6s                4.344704       2.144768

                         15       1    7s                7.773833       3.318077

       Atomic covalent radius [Angstrom]:                                  0.320

       Atomic van der Waals radius [Angstrom]:                             1.090

     The atoms of this atomic kind are PAW atoms (GAPW):
       Hard Gaussian function radius:                                      1.200
       Rho0 radius:                                                        1.200
       Maximum GTO radius used for PAW projector construction:            24.566

     GAPW Soft Basis Set                             aug-SZV-MOLOPT-ae-mini_soft

       Number of orbital shell sets:                                           1
       Number of orbital shells:                                               4
       Number of primitive Cartesian functions:                                6
       Number of Cartesian basis functions:                                    6
       Number of spherical basis functions:                                    6
       Norm type:                                                              2

       Normalised Cartesian orbitals:

                        Set   Shell   Orbital            Exponent    Coefficient

                          1       1    1s                0.065428       0.000000
                                                         0.100112       0.016532
                                                         0.243077       0.102760
                                                         0.625955       0.185857
                                                         1.822143       0.188385
                                                         6.513144       0.000000

                          1       2    2s                0.065428       0.083549
                                                         0.100112       0.009605
                                                         0.243077       0.002524
                                                         0.625955       0.013457
                                                         1.822143       0.000000
                                                         6.513144       0.000000

                          1       3    3s                0.065428       0.037407
                                                         0.100112      -0.169070
                                                         0.243077      -0.018899
                                                         0.625955       0.012806
                                                         1.822143       0.000000
                                                         6.513144       0.000000

                          1       4    2px               0.065428       0.059908
                                                         0.100112      -0.023770
                                                         0.243077       0.000032
                                                         0.625955       0.017779
                                                         1.822143       0.000000
                                                         6.513144       0.000000
                          1       4    2py               0.065428       0.059908
                                                         0.100112      -0.023770
                                                         0.243077       0.000032
                                                         0.625955       0.017779
                                                         1.822143       0.000000
                                                         6.513144       0.000000
                          1       4    2pz               0.065428       0.059908
                                                         0.100112      -0.023770
                                                         0.243077       0.000032
                                                         0.625955       0.017779
                                                         1.822143       0.000000
                                                         6.513144       0.000000

     AE Potential information for                                            ALL

       Description:                                       All-electron potential
                                          Krack, Parrinello, PCCP 2, 2105 (2000)

       Gaussian exponent of the core charge distribution:              12.500000
       Electronic configuration (s p d ...):                           1   0   0

  3. Atomic kind: S                                     Number of atoms:       1

     Orbital Basis Set                                    aug-SZV-MOLOPT-ae-mini

       Number of orbital shell sets:                                           3
       Number of orbital shells:                                               7
       Number of primitive Cartesian functions:                               10
       Number of Cartesian basis functions:                                   13
       Number of spherical basis functions:                                   13
       Norm type:                                                              2

       Normalised Cartesian orbitals:

                        Set   Shell   Orbital            Exponent    Coefficient

                          1       1    1s                2.029194      -0.266118
                                                         0.566140       0.104938
                                                         0.221583       0.207251
                                                         0.100000       0.000000

                          1       2    2s                2.029194       0.000000
                                                         0.566140       0.204121
                                                         0.221583      -0.309021
                                                         0.100000      -0.000667

                          1       3    2px               2.029194       0.036552
                                                         0.566140       0.416614
                                                         0.221583       0.100116
                                                         0.100000       0.000000
                          1       3    2py               2.029194       0.036552
                                                         0.566140       0.416614
                                                         0.221583       0.100116
                                                         0.100000       0.000000
                          1       3    2pz               2.029194       0.036552
                                                         0.566140       0.416614
                                                         0.221583       0.100116
                                                         0.100000       0.000000

                          1       4    3px               2.029194       0.000000
                                                         0.566140      -0.277816
                                                         0.221583      -0.031781
                                                         0.100000       0.095870
                          1       4    3py               2.029194       0.000000
                                                         0.566140      -0.277816
                                                         0.221583      -0.031781
                                                         0.100000       0.095870
                          1       4    3pz               2.029194       0.000000
                                                         0.566140      -0.277816
                                                         0.221583      -0.031781
                                                         0.100000       0.095870

                          2       1    1s               33.329752      -0.988305
                                                         7.745118       1.321941
                                                         2.518953       0.997688

                          2       2    2px              33.329752      17.797990
                                                         7.745118      11.191879
                                                         2.518953       1.772979
                          2       2    2py              33.329752      17.797990
                                                         7.745118      11.191879
                                                         2.518953       1.772979
                          2       2    2pz              33.329752      17.797990
                                                         7.745118      11.191879
                                                         2.518953       1.772979

                          3       1    1s              533.125730      12.203369
                                                        97.109510      11.802561
                                                        26.281620       3.678347

     RI Auxiliary Basis Set             RI_aug-SZV-MOLOPT-ae-mini_N_RI_042_s_p_d

       Number of orbital shell sets:                                          16
       Number of orbital shells:                                              16
       Number of primitive Cartesian functions:                               16
       Number of Cartesian basis functions:                                   46
       Number of spherical basis functions:                                   42
       Norm type:                                                              2

       Normalised Cartesian orbitals:

                        Set   Shell   Orbital            Exponent    Coefficient

                          1       1   13dx2              0.250000       0.145480
                          1       1   13dxy              0.250000       0.251979
                          1       1   13dxz              0.250000       0.251979
                          1       1   13dy2              0.250000       0.145480
                          1       1   13dyz              0.250000       0.251979
                          1       1   13dz2              0.250000       0.145480

                          2       1    1s                0.250000       0.251979

                          3       1    8px               0.250000       0.251979
                          3       1    8py               0.250000       0.251979
                          3       1    8pz               0.250000       0.251979

                          4       1    2s                0.385904       0.348955

                          5       1    9px               0.479455       0.568689
                          5       1    9py               0.479455       0.568689
                          5       1    9pz               0.479455       0.568689

                          6       1    3s                0.595686       0.483251

                          7       1   14dx2              0.595686       0.664798
                          7       1   14dxy              0.595686       1.151465
                          7       1   14dxz              0.595686       1.151465
                          7       1   14dy2              0.595686       0.664798
                          7       1   14dyz              0.595686       1.151465
                          7       1   14dz2              0.595686       0.664798

                          8       1    4s                0.919509       0.669233

                          9       1   10px               0.919509       1.283469
                          9       1   10py               0.919509       1.283469
                          9       1   10pz               0.919509       1.283469

                         10       1   15dx2              1.419368       3.037914
                         10       1   15dxy              1.419368       5.261822
                         10       1   15dxz              1.419368       5.261822
                         10       1   15dy2              1.419368       3.037914
                         10       1   15dyz              1.419368       5.261822
                         10       1   15dz2              1.419368       3.037914

                         11       1    5s                1.419368       0.926790

                         12       1   11px               1.763454       2.896646
                         12       1   11py               1.763454       2.896646
                         12       1   11pz               1.763454       2.896646

                         13       1    6s                2.190956       1.283469

                         14       1   16dx2              3.381990      13.882287
                         14       1   16dxy              3.381990      24.044826
                         14       1   16dxz              3.381990      24.044826
                         14       1   16dy2              3.381990      13.882287
                         14       1   16dyz              3.381990      24.044826
                         14       1   16dz2              3.381990      13.882287

                         15       1    7s                3.381990       1.777417

                         16       1   12px               3.381990       6.537406
                         16       1   12py               3.381990       6.537406
                         16       1   12pz               3.381990       6.537406

       Atomic covalent radius [Angstrom]:                                  1.020

       Atomic van der Waals radius [Angstrom]:                             1.800

     The atoms of this atomic kind are PAW atoms (GAPW):
       Hard Gaussian function radius:                                      1.512
       Rho0 radius:                                                        1.512
       Maximum GTO radius used for PAW projector construction:            24.566

     GAPW Soft Basis Set                             aug-SZV-MOLOPT-ae-mini_soft

       Number of orbital shell sets:                                           3
       Number of orbital shells:                                               7
       Number of primitive Cartesian functions:                                5
       Number of Cartesian basis functions:                                   13
       Number of spherical basis functions:                                   13
       Norm type:                                                              2

       Normalised Cartesian orbitals:

                        Set   Shell   Orbital            Exponent    Coefficient

                          1       1    1s                2.029194      -0.266118
                                                         0.566140       0.104938
                                                         0.221583       0.207251
                                                         0.100000       0.000000

                          1       2    2s                2.029194       0.000000
                                                         0.566140       0.204121
                                                         0.221583      -0.309021
                                                         0.100000      -0.000667

                          1       3    2px               2.029194       0.036552
                                                         0.566140       0.416614
                                                         0.221583       0.100116
                                                         0.100000       0.000000
                          1       3    2py               2.029194       0.036552
                                                         0.566140       0.416614
                                                         0.221583       0.100116
                                                         0.100000       0.000000
                          1       3    2pz               2.029194       0.036552
                                                         0.566140       0.416614
                                                         0.221583       0.100116
                                                         0.100000       0.000000

                          1       4    3px               2.029194       0.000000
                                                         0.566140      -0.277816
                                                         0.221583      -0.031781
                                                         0.100000       0.095870
                          1       4    3py               2.029194       0.000000
                                                         0.566140      -0.277816
                                                         0.221583      -0.031781
                                                         0.100000       0.095870
                          1       4    3pz               2.029194       0.000000
                                                         0.566140      -0.277816
                                                         0.221583      -0.031781
                                                         0.100000       0.095870

                          2       1    1s                2.518953       0.997688

                          2       2    2px               2.518953       1.772979
                          2       2    2py               2.518953       1.772979
                          2       2    2pz               2.518953       1.772979

                          3       1    1s         

     AE Potential information for                                            ALL

       Description:                                       All-electron potential
                                          Krack, Parrinello, PCCP 2, 2105 (2000)

       Gaussian exponent of the core charge distribution:               2.834467
       Electronic configuration (s p d ...):                           6  10   0

  4. Atomic kind: Cl                                    Number of atoms:       1

     Orbital Basis Set                                    aug-SZV-MOLOPT-ae-mini

       Number of orbital shell sets:                                           3
       Number of orbital shells:                                               7
       Number of primitive Cartesian functions:                               10
       Number of Cartesian basis functions:                                   13
       Number of spherical basis functions:                                   13
       Norm type:                                                              2

       Normalised Cartesian orbitals:

                        Set   Shell   Orbital            Exponent    Coefficient

                          1       1    1s                2.129386      -0.275914
                                                         0.594093       0.108800
                                                         0.232524       0.214880
                                                         0.080000       0.000000

                          1       2    2s                2.129386       0.000000
                                                         0.594093       0.898056
                                                         0.232524      -0.359822
                                                         0.080000      -0.008509

                          1       3    2px               2.129386       0.038821
                                                         0.594093       0.442483
                                                         0.232524       0.106333
                                                         0.080000       0.000000
                          1       3    2py               2.129386       0.038821
                                                         0.594093       0.442483
                                                         0.232524       0.106333
                                                         0.080000       0.000000
                          1       3    2pz               2.129386       0.038821
                                                         0.594093       0.442483
                                                         0.232524       0.106333
                                                         0.080000       0.000000

                          1       4    3px               2.129386       0.000000
                                                         0.594093      -0.559037
                                                         0.232524      -0.109601
                                                         0.080000       0.030137
                          1       4    3py               2.129386       0.000000
                                                         0.594093      -0.559037
                                                         0.232524      -0.109601
                                                         0.080000       0.030137
                          1       4    3pz               2.129386       0.000000
                                                         0.594093      -0.559037
                                                         0.232524      -0.109601
                                                         0.080000       0.030137

                          2       1    1s               38.960419      -1.111052
                                                         9.053563       1.486126
                                                         2.944500       1.121601

                          2       2    2px              38.960419      21.632683
                                                         9.053563      13.603241
                                                         2.944500       2.154979
                          2       2    2py              38.960419      21.632683
                                                         9.053563      13.603241
                                                         2.944500       2.154979
                          2       2    2pz              38.960419      21.632683
                                                         9.053563      13.603241
                                                         2.944500       2.154979

                          3       1    1s              601.345610      13.356745
                                                       109.535850      12.918056
                                                        29.644670       4.025998

     RI Auxiliary Basis Set             RI_aug-SZV-MOLOPT-ae-mini_N_RI_050_s_p_d

       Number of orbital shell sets:                                          18
       Number of orbital shells:                                              18
       Number of primitive Cartesian functions:                               18
       Number of Cartesian basis functions:                                   55
       Number of spherical basis functions:                                   50
       Norm type:                                                              2

       Normalised Cartesian orbitals:

                        Set   Shell   Orbital            Exponent    Coefficient

                          1       1    1s                0.200000       0.213149

                          2       1    8px               0.200000       0.190646
                          2       1    8py               0.200000       0.190646
                          2       1    8pz               0.200000       0.190646

                          3       1   14dx2              0.200000       0.098449
                          3       1   14dxy              0.200000       0.170519
                          3       1   14dxz              0.200000       0.170519
                          3       1   14dy2              0.200000       0.098449
                          3       1   14dyz              0.200000       0.170519
                          3       1   14dz2              0.200000       0.098449

                          4       1    2s                0.323005       0.305363

                          5       1    9px               0.355504       0.391287
                          5       1    9py               0.355504       0.391287
                          5       1    9pz               0.355504       0.391287

                          6       1   15dx2              0.410486       0.346483
                          6       1   15dxy              0.410486       0.600125
                          6       1   15dxz              0.410486       0.600125
                          6       1   15dy2              0.410486       0.346483
                          6       1   15dyz              0.410486       0.600125
                          6       1   15dz2              0.410486       0.346483

                          7       1    3s                0.521660       0.437473

                          8       1   10px               0.631916       0.803090
                          8       1   10py               0.631916       0.803090
                          8       1   10pz               0.631916       0.803090

                          9       1    4s                0.842494       0.626737

                         10       1   16dx2              0.842494       1.219413
                         10       1   16dxy              0.842494       2.112086
                         10       1   16dxz              0.842494       2.112086
                         10       1   16dy2              0.842494       1.219413
                         10       1   16dyz              0.842494       2.112086
                         10       1   16dz2              0.842494       1.219413

                         11       1   11px               1.123243       1.648286
                         11       1   11py               1.123243       1.648286
                         11       1   11pz               1.123243       1.648286

                         12       1    5s                1.360647       0.897882

                         13       1   17dx2              1.729159       4.291612
                         13       1   17dxy              1.729159       7.433290
                         13       1   17dxz              1.729159       7.433290
                         13       1   17dy2              1.729159       4.291612
                         13       1   17dyz              1.729159       7.433290
                         13       1   17dz2              1.729159       4.291612

                         14       1   12px               1.996588       3.382990
                         14       1   12py               1.996588       3.382990
                         14       1   12pz               1.996588       3.382990

                         15       1    6s                2.197477       1.286333

                         16       1   18dx2              3.548977      15.103930
                         16       1   18dxy              3.548977      26.160774
                         16       1   18dxz              3.548977      26.160774
                         16       1   18dy2              3.548977      15.103930
                         16       1   18dyz              3.548977      26.160774
                         16       1   18dz2              3.548977      15.103930

                         17       1    7s                3.548977       1.842839

                         18       1   13px               3.548977       6.943349
                         18       1   13py               3.548977       6.943349
                         18       1   13pz               3.548977       6.943349

       Atomic covalent radius [Angstrom]:                                  0.990

       Atomic van der Waals radius [Angstrom]:                             1.750

     The atoms of this atomic kind are PAW atoms (GAPW):
       Hard Gaussian function radius:                                      1.512
       Rho0 radius:                                                        1.512
       Maximum GTO radius used for PAW projector construction:            24.566

     GAPW Soft Basis Set                             aug-SZV-MOLOPT-ae-mini_soft

       Number of orbital shell sets:                                           3
       Number of orbital shells:                                               7
       Number of primitive Cartesian functions:                                5
       Number of Cartesian basis functions:                                   13
       Number of spherical basis functions:                                   13
       Norm type:                                                              2

       Normalised Cartesian orbitals:

                        Set   Shell   Orbital            Exponent    Coefficient

                          1       1    1s                2.129386      -0.275914
                                                         0.594093       0.108800
                                                         0.232524       0.214880
                                                         0.080000       0.000000

                          1       2    2s                2.129386       0.000000
                                                         0.594093       0.898056
                                                         0.232524      -0.359822
                                                         0.080000      -0.008509

                          1       3    2px               2.129386       0.038821
                                                         0.594093       0.442483
                                                         0.232524       0.106333
                                                         0.080000       0.000000
                          1       3    2py               2.129386       0.038821
                                                         0.594093       0.442483
                                                         0.232524       0.106333
                                                         0.080000       0.000000
                          1       3    2pz               2.129386       0.038821
                                                         0.594093       0.442483
                                                         0.232524       0.106333
                                                         0.080000       0.000000

                          1       4    3px               2.129386       0.000000
                                                         0.594093      -0.559037
                                                         0.232524      -0.109601
                                                         0.080000       0.030137
                          1       4    3py               2.129386       0.000000
                                                         0.594093      -0.559037
                                                         0.232524      -0.109601
                                                         0.080000       0.030137
                          1       4    3pz               2.129386       0.000000
                                                         0.594093      -0.559037
                                                         0.232524      -0.109601
                                                         0.080000       0.030137

                          2       1    1s                2.944500       1.121601

                          2       2    2px               2.944500       2.154979
                          2       2    2py               2.944500       2.154979
                          2       2    2pz               2.944500       2.154979

                          3       1    1s         

     AE Potential information for                                            ALL

       Description:                                       All-electron potential
                                          Krack, Parrinello, PCCP 2, 2105 (2000)

       Gaussian exponent of the core charge distribution:               2.974420
       Electronic configuration (s p d ...):                           6  11   0

  5. Atomic kind: C                                     Number of atoms:       7

     Orbital Basis Set                                    aug-SZV-MOLOPT-ae-mini

       Number of orbital shell sets:                                           2
       Number of orbital shells:                                               5
       Number of primitive Cartesian functions:                                7
       Number of Cartesian basis functions:                                    9
       Number of spherical basis functions:                                    9
       Norm type:                                                              2

       Normalised Cartesian orbitals:

                        Set   Shell   Orbital            Exponent    Coefficient

                          1       1    2s                0.114558       0.000000
                                                         0.222289       0.161536
                                                         0.683483       0.214036
                                                         2.941249      -0.160017

                          1       2    3s                0.114558       0.000272
                                                         0.222289       0.256636
                                                         0.683483      -0.079244
                                                         2.941249       0.000032

                          1       3    3px               0.114558       0.000000
                                                         0.222289       0.085276
                                                         0.683483       0.538304
                                                         2.941249       0.856044
                          1       3    3py               0.114558       0.000000
                                                         0.222289       0.085276
                                                         0.683483       0.538304
                                                         2.941249       0.856044
                          1       3    3pz               0.114558       0.000000
                                                         0.222289       0.085276
                                                         0.683483       0.538304
                                                         2.941249       0.856044

                          1       4    4px               0.114558      -0.035043
                                                         0.222289      -0.159067
                                                         0.683483       0.106927
                                                         2.941249      -0.036832
                          1       4    4py               0.114558      -0.035043
                                                         0.222289      -0.159067
                                                         0.683483       0.106927
                                                         2.941249      -0.036832
                          1       4    4pz               0.114558      -0.035043
                                                         0.222289      -0.159067
                                                         0.683483       0.106927
                                                         2.941249      -0.036832

                          2       1    1s               71.616837       2.707801
                                                        13.045096       2.618883
                                                         3.530512       0.816191

     RI Auxiliary Basis Set             RI_aug-SZV-MOLOPT-ae-mini_N_RI_055_s_p_d

       Number of orbital shell sets:                                          19
       Number of orbital shells:                                              19
       Number of primitive Cartesian functions:                               19
       Number of Cartesian basis functions:                                   61
       Number of spherical basis functions:                                   55
       Norm type:                                                              2

       Normalised Cartesian orbitals:

                        Set   Shell   Orbital            Exponent    Coefficient

                          1       1    1s                0.286395       0.279019

                          2       1    8px               0.286395       0.298639
                          2       1    8py               0.286395       0.298639
                          2       1    8pz               0.286395       0.298639

                          3       1   14dx2              0.286395       0.184544
                          3       1   14dxy              0.286395       0.319639
                          3       1   14dxz              0.286395       0.319639
                          3       1   14dy2              0.286395       0.184544
                          3       1   14dyz              0.286395       0.319639
                          3       1   14dz2              0.286395       0.184544

                          4       1    2s                0.459764       0.397934

                          5       1    9px               0.505415       0.607436
                          5       1    9py               0.505415       0.607436
                          5       1    9pz               0.505415       0.607436

                          6       1   15dx2              0.505415       0.498648
                          6       1   15dxy              0.505415       0.863684
                          6       1   15dxz              0.505415       0.863684
                          6       1   15dy2              0.505415       0.498648
                          6       1   15dyz              0.505415       0.863684
                          6       1   15dz2              0.505415       0.498648

                          7       1    3s                0.738081       0.567529

                          8       1   10px               0.891931       1.235533
                          8       1   10py               0.891931       1.235533
                          8       1   10pz               0.891931       1.235533

                          9       1   16dx2              0.891931       1.347378
                          9       1   16dxy              0.891931       2.333728
                          9       1   16dxz              0.891931       2.333728
                          9       1   16dy2              0.891931       1.347378
                          9       1   16dyz              0.891931       2.333728
                          9       1   16dz2              0.891931       1.347378

                         10       1    4s                1.184876       0.809403

                         11       1   11px               1.574035       2.513091
                         11       1   11py               1.574035       2.513091
                         11       1   11pz               1.574035       2.513091

                         12       1   17dx2              1.574035       3.640699
                         12       1   17dxy              1.574035       6.305876
                         12       1   17dxz              1.574035       6.305876
                         12       1   17dy2              1.574035       3.640699
                         12       1   17dyz              1.574035       6.305876
                         12       1   17dz2              1.574035       3.640699

                         13       1    5s                1.902139       1.154361

                         14       1   12px               2.777778       5.111660
                         14       1   12py               2.777778       5.111660
                         14       1   12pz               2.777778       5.111660

                         15       1   18dx2              2.777778       9.837395
                         15       1   18dxy              2.777778      17.038868
                         15       1   18dxz              2.777778      17.038868
                         15       1   18dy2              2.777778       9.837395
                         15       1   18dyz              2.777778      17.038868
                         15       1   18dz2              2.777778       9.837395

                         16       1    6s                3.053594       1.646337

                         17       1    7s                4.902082       2.347986

                         18       1   13px               4.902082      10.397185
                         18       1   13py               4.902082      10.397185
                         18       1   13pz               4.902082      10.397185

                         19       1   19dx2              4.902082      26.581250
                         19       1   19dxy              4.902082      46.040076
                         19       1   19dxz              4.902082      46.040076
                         19       1   19dy2              4.902082      26.581250
                         19       1   19dyz              4.902082      46.040076
                         19       1   19dz2              4.902082      26.581250

       Atomic covalent radius [Angstrom]:                                  0.770

       Atomic van der Waals radius [Angstrom]:                             1.700

     The atoms of this atomic kind are PAW atoms (GAPW):
       Hard Gaussian function radius:                                      1.512
       Rho0 radius:                                                        1.512
       Maximum GTO radius used for PAW projector construction:            24.566

     GAPW Soft Basis Set                             aug-SZV-MOLOPT-ae-mini_soft

       Number of orbital shell sets:                                           2
       Number of orbital shells:                                               5
       Number of primitive Cartesian functions:                                5
       Number of Cartesian basis functions:                                    9
       Number of spherical basis functions:                                    9
       Norm type:                                                              2

       Normalised Cartesian orbitals:

                        Set   Shell   Orbital            Exponent    Coefficient

                          1       1    2s                0.114558       0.000000
                                                         0.222289       0.161536
                                                         0.683483       0.214036
                                                         2.941249      -0.160017

                          1       2    3s                0.114558       0.000272
                                                         0.222289       0.256636
                                                         0.683483      -0.079244
                                                         2.941249       0.000032

                          1       3    3px               0.114558       0.000000
                                                         0.222289       0.085276
                                                         0.683483       0.538304
[...]
 prepare_gapw_den                    86  8.0    0.001    0.001    6.626    6.730
 put_rho0_on_grid                    86  9.0    0.688    0.723    6.399    6.502
 transfer_rs2pw                     431  8.4    0.006    0.007    6.083    6.463
 mp_waitany                       11396 11.5    5.192    5.844    5.192    5.844
 mp_alltoall_d45                     87 10.0    3.138    5.022    3.138    5.022
 transfer_pw2rs_250                 173 11.0    1.837    1.960    4.534    4.659
 transfer_rs2pw_250                 173 10.0    1.716    1.834    4.150    4.533
 pw_scatter_p                       940 12.1    4.281    4.461    4.281    4.461
 pw_gather_p                        857 11.8    4.016    4.445    4.016    4.445
 hfx_ks_matrix                       86  8.0    0.001    0.001    4.389    4.401
 integrate_four_center               86  9.0    1.774    2.254    4.382    4.394
 xc_functional_eval                 765 10.4    0.001    0.002    3.785    4.254
 pbe_lda_eval                       765 11.4    3.784    4.253    3.784    4.253
 mp_alltoall_d11v                  2144  9.7    1.993    3.678    1.993    3.678
 pw_derive                          768 11.3    3.196    3.401    3.196    3.401
 compute_GW_self_energy             100  7.0    0.001    0.001    3.112    3.139
 cp_fm_diag_elpa                     91  7.0    0.000    0.000    2.918    2.922
 parallel_gemm_fm                   390  8.4    0.001    0.001    2.882    2.895
 parallel_gemm_fm_cosma             390  9.4    2.882    2.894    2.882    2.894
 integrate_vhg0_rspace               86  8.0    0.034    0.057    2.832    2.853
 mp_sum_d                          4147  6.7    1.782    2.826    1.782    2.826
 start_bse_calculation                1  7.0    0.000    0.000    2.756    2.756
 cp_fm_diag_elpa_base                91  8.0    2.010    2.468    2.068    2.722
 compute_GW_self_energy_deep        100  8.0    1.139    1.160    2.678    2.705
 pw_copy                           1285 10.6    2.063    2.186    2.063    2.186
 qs_energies_init_hamiltonians        1  3.0    0.000    0.000    1.926    1.926
 build_core_hamiltonian_matrix        1  4.0    0.000    0.000    1.857    1.857
 overlap_condnum                      1  5.0    0.000    0.000    1.855    1.856
 cp_fm_power                          2  7.5    0.049    0.052    1.651    1.715
 pw_poisson_set                      87  8.9    0.002    0.002    1.598    1.689
 qs_scf_new_mos                      85  5.0    0.001    0.001    1.513    1.680
 cp2k_distribution_to_z_slices       86  9.0    0.801    0.955    1.547    1.679
 mp_waitall_1                     24150 12.1    1.246    1.521    1.246    1.521
 pw_copy_to_array                   857 11.8    1.364    1.470    1.364    1.470
 pw_axpy                            855  9.3    1.279    1.400    1.279    1.400
 create_hermitian_form_of_ABBA        1  8.0    0.000    0.000    1.365    1.368
 fft_wrap_pw1pw2_90                 172 10.5    0.059    0.065    1.113    1.304
 pw_copy_from_array                 940 12.1    1.181    1.280    1.181    1.280
 rs_grid_zero                       432 11.2    1.170    1.231    1.170    1.231
 cp_fm_redistribute_end              91  8.0    0.617    1.214    0.619    1.216
 transfer_pw2rs_30                   86 12.0    0.585    0.644    1.029    1.103
 pw_integral_ab_c1d_c1d_gs           86  9.0    0.927    0.947    1.039    1.091
 diagonalize_C                        1  8.0    0.000    0.000    1.077    1.079
 transfer_pw2rs_90                   86 12.0    0.278    0.297    0.921    1.031
 mp_sync                            881  9.6    0.612    0.985    0.612    0.985
 transfer_rs2pw_90                   86  9.0    0.275    0.312    0.835    0.954
 dbcsr_multiply_generic             322  8.0    0.006    0.006    0.771    0.946
 powell_optimize                 585726 11.0    0.851    0.934    0.851    0.934
 compute_vec_Sigma_x_minus_vxc_       1  4.0    0.000    0.000    0.894    0.894
 transfer_rs2pw_30                   86  9.0    0.277    0.322    0.819    0.889
 calculate_dm_sparse                 85  6.0    0.000    0.001    0.692    0.858
 cp_dbcsr_plus_fm_fm_t               85  7.0    0.001    0.001    0.691    0.856
 mp_sendrecv_dv                    5332 10.0    0.751    0.833    0.751    0.833
 integrate_four_center_main          86 10.0    0.016    0.025    0.812    0.826
 rpa_num_int_RPA_matrix_operati     100  7.0    0.001    0.003    0.819    0.820
 copy_dbcsr_to_fm                   212  7.2    0.002    0.002    0.716    0.819
 calculate_vxc_atom                  86  8.0    0.057    0.130    0.809    0.811
 integrate_four_center_bin         5188 11.0    0.796    0.807    0.796    0.807
 eigensolver_symm                    86  6.0    0.006    0.007    0.775    0.776
 multiply_cannon                    322  9.0    0.012    0.013    0.630    0.773
 calc_screening_functions             1 10.0    0.163    0.165    0.633    0.652
 self_consistency_check              85  5.0    0.000    0.000    0.316    0.651
 cp_sm_mix                           85  6.0    0.000    0.000    0.316    0.651
 mp_max_d                            87  6.9    0.316    0.650    0.316    0.650
 scale_and_distribute               172 10.0    0.215    0.641    0.215    0.641
 dbcsr_complete_redistribute        386  8.6    0.014    0.016    0.632    0.636
 pw_zero                            512 10.3    0.591    0.624    0.591    0.624
 calc_pair_dist_radii                 1 10.0    0.159    0.161    0.540    0.622
 calc_mat_Q                         100  8.0    0.000    0.000    0.595    0.605
 contract_S_to_Q                    100  9.0    0.000    0.001    0.589    0.600
 gaVxcgb_GC                         340  9.0    0.073    0.584    0.073    0.584
 cp_fm_redistribute_start            91  8.0    0.215    0.561    0.231    0.577
 init_scf_run                         1  3.0    0.000    0.000    0.567    0.568
 mp_sum_dm                         5250  7.7    0.420    0.566    0.420    0.566
 scf_env_initial_rho_setup            1  4.0    0.000    0.000    0.559    0.559
 multiply_cannon_loop               322 10.0    0.003    0.004    0.386    0.559
 pw_poisson_rebuild                  86  9.0    0.000    0.000    0.526    0.547
 ps_wavelet_create                    1 10.0    0.000    0.000    0.526    0.547
 RS_z_slice_distribution              1 11.0    0.458    0.492    0.526    0.547
 mp2_ri_gpw_compute_in                1  5.0    0.001    0.002    0.483    0.483
 mp_alltoall_i11v                  1372  9.5    0.141    0.447    0.141    0.447
 multiply_cannon_metrocomm3         952 11.1    0.001    0.001    0.234    0.424
 mp2_ri_gpw_compute_in_loop           1  6.0    0.000    0.000    0.416    0.416
 mp_isend_dv                      10373 11.8    0.248    0.404    0.248    0.404
 cp_fm_cholesky_invert              101  8.0    0.388    0.399    0.388    0.399
 qs_init_subsys                       1  2.0    0.001    0.001    0.389    0.389
 qs_env_setup                         1  3.0    0.000    0.000    0.386    0.386
 qs_env_rebuild_pw_env                2  3.5    0.000    0.000    0.386    0.386
 pw_env_rebuild                       1  5.0    0.000    0.000    0.386    0.386
 mp_max_i                           712  2.9    0.204    0.386    0.204    0.386
 pw_grid_setup                        4  6.0    0.000    0.000    0.374    0.374
 pw_grid_setup_internal               4  7.0    0.005    0.006    0.374    0.374
 grid_integrate_task_list            86 10.0    0.145    0.371    0.145    0.371
 dbcsr_desymmetrize_deep            214  8.1    0.004    0.005    0.357    0.362
 mp_alltoall_i22                    600  9.4    0.256    0.360    0.256    0.360
 mp_sum_dv                         7028  9.6    0.239    0.349    0.239    0.349
 rs_gather_matrices                  86 10.0    0.002    0.002    0.237    0.348
 fft_wrap_pw1pw2_30                 172 10.5    0.013    0.014    0.262    0.346
 pw_grid_sort                         4  8.0    0.219    0.225    0.306    0.316
 hybrid_alltoall_any                858 11.3    0.008    0.009    0.110    0.313
 transfer_rs2pw_10                   86  9.0    0.064    0.072    0.273    0.308
 Vh_1c_gg_integrals                  86  8.0    0.010    0.035    0.156    0.306
 cp_fm_uplo_to_full                 195  8.3    0.099    0.301    0.099    0.301
 mp_bcast_b_src                     177  7.0    0.037    0.267    0.037    0.267
 pw_scale                           341  9.5    0.242    0.263    0.242    0.263
 mp_allgather_i34                   322 10.0    0.223    0.252    0.223    0.252
 contract_B_L                         4  7.0    0.002    0.004    0.227    0.238
 cp_fm_cholesky_decompose           102  9.0    0.224    0.227    0.224    0.227
 arnoldi_conjugate_gradient           5  6.0    0.005    0.007    0.226    0.226
 transfer_pw2rs_10                   86 12.0    0.087    0.094    0.205    0.221
 multiply_cannon_metrocomm1         952 11.1    0.001    0.001    0.088    0.220
 compute_Erpa_by_freq_int           100  8.0    0.001    0.001    0.210    0.210
 calculate_rho_atom                 430  9.0    0.133    0.208    0.133    0.208
 create_qs_kind_set                   1  2.0    0.000    0.000    0.198    0.198
 read_qs_kind                         5  3.0    0.101    0.121    0.198    0.198
 fm_general_add_bse                   5 10.2    0.000    0.000    0.165    0.173
 dbt_total                            8  8.0    0.000    0.000    0.171    0.171
 make_m2s                           644  9.0    0.003    0.003    0.096    0.166
 cp_fm_syrk                           3  7.0    0.155    0.166    0.155    0.166
 mp2_main_alloc_hfx                   1  4.0    0.123    0.159    0.123    0.159
 create_A                             1  8.0    0.001    0.001    0.155    0.158
 dbt_contract                         4  9.0    0.000    0.000    0.149    0.156
 make_images                        644 10.0    0.010    0.011    0.074    0.145
 mp_sum_l                          1610  7.3    0.113    0.141    0.113    0.141
 dbcsr_sym_matrix_vector_mult      1655  7.0    0.012    0.013    0.130    0.136
 create_B                             1  8.0    0.000    0.000    0.125    0.133
 multiply_cannon_metrocomm4         630 11.1    0.001    0.001    0.034    0.124
 integrate_four_center_load          86 10.0    0.000    0.000    0.092    0.112
 hfx_load_balance                     1 11.0    0.000    0.000    0.092    0.112
 make_images_data                   644 11.0    0.004    0.004    0.042    0.111
 cp_fm_norm                           2  6.0    0.062    0.108    0.062    0.108
 hfx_load_balance_range               1 12.0    0.000    0.000    0.085    0.105
 dbt_tas_multiply                     8 11.5    0.000    0.000    0.104    0.104
 dbt_tas_total                        8 12.5    0.000    0.001    0.104    0.104
 xc_pw_smooth                        85 10.0    0.000    0.000    0.086    0.100
 calculate_rho_atom_coeff            86  6.0    0.021    0.024    0.099    0.100
 parser_read_line                 45689  4.0    0.007    0.007    0.097    0.099
 create_integ_mat                     4  6.0    0.001    0.001    0.091    0.093
 parser_read_line_low                60  5.0    0.003    0.033    0.090    0.092
 sort_shells                          4  9.0    0.088    0.092    0.088    0.092
 mp2_eri_3c_integrate                 1  7.0    0.004    0.005    0.082    0.091
 dbcsr_add_d                       2553  7.1    0.001    0.001    0.024    0.091
 broadcast_input_information         60  6.0    0.009    0.010    0.087    0.090
 dbcsr_add_anytype                 2553  8.1    0.003    0.012    0.022    0.090
 array2fm                             4  7.0    0.000    0.000    0.082    0.089
 integrate_set_3c                  7476  8.0    0.064    0.072    0.078    0.087
 vxc_of_r_new                       680  9.0    0.002    0.014    0.016    0.086
 fft_wrap_pw1pw2_10                 172 10.5    0.003    0.003    0.067    0.082
 mp_cart_create                     787  9.8    0.068    0.081    0.068    0.081
 cp_fm_to_fm_submat_general         112 10.1    0.074    0.081    0.074    0.081
 scf_post_calculation_gpw             1  3.0    0.000    0.000    0.071    0.071
 write_available_results              1  4.0    0.000    0.000    0.071    0.071
 write_mo_free_results                1  5.0    0.009    0.010    0.071    0.071
 dbcsr_finalize                    4255 10.2    0.007    0.017    0.035    0.070
 qs_env_update_s_mstruct              1  4.0    0.000    0.000    0.010    0.069
 qs_create_task_list                  1  5.0    0.000    0.000    0.010    0.069
 generate_qs_task_list                1  6.0    0.000    0.000    0.010    0.069
 distribute_tasks                     1  7.0    0.000    0.000    0.010    0.068
 mixing_init                          1  5.0    0.063    0.068    0.068    0.068
 mp_isendrecv_dv                  10664 12.0    0.026    0.068    0.026    0.068
 calculate_ecore_overlap              1  4.0    0.000    0.000    0.059    0.068
 create_local_tasks                   1  8.0    0.000    0.000    0.009    0.068
 mp_alltoall_l11v                     1  9.0    0.009    0.068    0.009    0.068
 mp_sum_i                            19  9.5    0.037    0.066    0.037    0.066
 get_2c_integrals                     1  6.0    0.000    0.000    0.061    0.066
 restraint_control                    1  2.0    0.000    0.000    0.037    0.066
 mp_bcast_i_src                     240  7.0    0.059    0.064    0.059    0.064
 dbt_pgrid_create_expert             84 10.8    0.000    0.000    0.048    0.061
 dbt_copy                            12 10.0    0.000    0.000    0.047    0.059
 fm_general_add_bse_1_setup           5 11.2    0.051    0.055    0.051    0.055
 update_ks_atom                      86  8.0    0.016    0.020    0.045    0.053
 dbt_tas_dbm                          8 13.5    0.000    0.000    0.052    0.052
 dbcsr_col_vec_to_rep_row          1655  8.0    0.006    0.006    0.046    0.052
 dbt_tas_mm_1N                        8 14.5    0.000    0.000    0.037    0.050
 dbm_multiply                         8 15.5    0.037    0.050    0.037    0.050
 dbt_reshape                          8 11.5    0.004    0.005    0.036    0.047
 mp_isend_dm3                      3108 11.5    0.038    0.043    0.038    0.043
 postprocess_bse                      1  9.0    0.000    0.000    0.041    0.042
 dbt_communicate_buffer               8 12.5    0.000    0.000    0.029    0.040
 array2fm_info                        4  8.0    0.036    0.040    0.037    0.040
 mp_waitall_2                        48 15.8    0.028    0.040    0.028    0.040
 write_mo_set_to_restart             85  5.0    0.002    0.033    0.030    0.038
 mp_bcast_dv                       1744  9.0    0.031    0.038    0.031    0.038
 dbcsr_iterator_start             23616  9.0    0.019    0.027    0.024    0.036
 mp_bcast_dm                       3440  9.0    0.029    0.036    0.029    0.036
 fm_general_add_bse_5_comm_buff       5 11.2    0.000    0.000    0.032    0.036
 communicate_buffer                   5 12.2    0.000    0.000    0.032    0.036
 dbt_tas_replicate                    8 13.5    0.005    0.007    0.026    0.033
 dbcsr_merge_all                   3505 10.9    0.012    0.023    0.019    0.033
 fm_general_add_bse_4_buf_from_       1 10.0    0.030    0.033    0.030    0.033
 pw_grid_assign                       4  8.0    0.031    0.032    0.032    0.033
 fm_general_add_bse_4_buf_from_       1 10.0    0.030    0.032    0.030    0.032
 invert_mat                           1  7.0    0.000    0.000    0.019    0.032
 ao_to_mo_and_store_B_mult_bse_      29  7.0    0.000    0.000    0.021    0.032
 cp_fm_triangular_invert              1  8.0    0.019    0.032    0.019    0.032
 cp_fm_symm                          86  7.0    0.030    0.031    0.030    0.031
 hirshfeld_integration                1  6.0    0.001    0.005    0.031    0.031
 multiply_cannon_multrec            952 11.1    0.020    0.029    0.021    0.031
 ao_to_mo_and_store_B_mult_gw_1      29  7.0    0.000    0.000    0.023    0.031
 write_mo_set_low                     5  6.0    0.000    0.000    0.029    0.029
 cp_fm_write_unformatted              5  7.0    0.029    0.029    0.029    0.029
 calculate_hirshfeld_normalizat       1  6.0    0.001    0.005    0.028    0.029
 dbt_remap                            8 10.0    0.001    0.001    0.029    0.029
 copy_fm_to_dbcsr                   174  8.1    0.000    0.000    0.026    0.028
 mult_B_with_W                        1  8.0    0.000    0.000    0.027    0.028
 dbcsr_rep_row_to_rep_col_vec      1655  8.0    0.004    0.005    0.022    0.027
 dbt_tas_communicate_buffer          16 16.0    0.000    0.000    0.021    0.027
 pw_grid_remap                        4  8.0    0.005    0.006    0.020    0.027
 offload_free_buffer                 94  8.5    0.021    0.027    0.021    0.027
 array2fm_buffer_send                 4  8.0    0.025    0.027    0.025    0.027
 mp_rank_compare                   1797 12.9    0.023    0.026    0.023    0.026
 dbcsr_copy                        7661  7.7    0.013    0.017    0.023    0.026
 mp_sum_iv                          533  9.7    0.015    0.025    0.015    0.025
 mp_irecv_dv                      10331 11.8    0.011    0.025    0.011    0.025
 mp2_main_free_hfx                    1  4.0    0.014    0.025    0.014    0.025
 get_oscillator_strengths             1 10.0    0.000    0.000    0.024    0.024
 compute_2c_integrals                 1  7.0    0.000    0.000    0.023    0.024
 dbt_tas_replicate_communicate_       8 14.5    0.000    0.000    0.017    0.024
 external_control                    86  5.0    0.001    0.019    0.023    0.023
 integrate_four_center_dist_KS       86 10.0    0.003    0.005    0.021    0.023
 Q_trace_and_add_unit_matrix        100  8.0    0.001    0.001    0.014    0.022
 dbcsr_work_create                 4433 10.2    0.007    0.015    0.010    0.022
 mp_sum_im3                           4  9.0    0.015    0.022    0.015    0.022
 calc_fm_mat_S_rpa                  100  9.0    0.006    0.022    0.006    0.022
 mp_bcast_am_src                     60  7.0    0.017    0.019    0.018    0.020
 dbcsr_create_new                 11052  9.2    0.014    0.015    0.019    0.020
 ao_to_mo_and_store_B_mult_bse_      29  7.0    0.000    0.000    0.017    0.020
 mp_isend_im2                       269 13.3    0.006    0.019    0.006    0.019
 ao_to_mo_and_store_B_mult_1         29  7.0    0.000    0.000    0.019    0.019
 integrate_four_center_getP          86 10.0    0.003    0.004    0.017    0.019
 mp_comm_split_direct                48 14.5    0.015    0.019    0.015    0.019
 calculate_rho0_atom                430  9.0    0.018    0.019    0.018    0.019
 cholesky_decomp                      1  7.0    0.000    0.000    0.015    0.018
 dbcsr_iterator_stop              23616  9.0    0.011    0.015    0.014    0.018
 dbcsr_work_destroy_all            4433 11.2    0.005    0.012    0.008    0.018
 dbt_tas_estimate_result_nze          4 12.0    0.001    0.001    0.017    0.017
 -------------------------------------------------------------------------------

 The number of warnings for this run is : 1
 
 -------------------------------------------------------------------------------
  **** **** ******  **  PROGRAM ENDED AT                 2025-06-23 20:47:11.882
 ***** ** ***  *** **   PROGRAM RAN ON                                  n2cn0701
 **    ****   ******    PROGRAM RAN BY                                  metdyn02
 ***** **    ** ** **   PROGRAM PROCESS ID                                509626
  **** **  *******  **  PROGRAM STOPPED IN /scratch/hpc-prf-metdyn/metdyn02_Remi
                                           /10_MOL/05_MOL/aUKBqsEOTmq69kFe5R_nOg
                                           /5k_set_final_qzvp/JIBHAD/mini-SZV/GW
                                           +BSE/RILIM
