 DBCSR| CPU Multiplication driver                                           XSMM (U)
 DBCSR| Multrec recursion limit                                              512 (U)
 DBCSR| Multiplication stack size                                           1000 (D)
 DBCSR| Maximum elements for images                                    UNLIMITED (U)
 DBCSR| Multiplicative factor virtual images                                   1 (U)
 DBCSR| Use multiplication densification                                       T (D)
 DBCSR| Multiplication size stacks                                             3 (U)
 DBCSR| Use memory pool for CPU allocation                                     F (U)
 DBCSR| Number of 3D layers                                               SINGLE (U)
 DBCSR| Use MPI memory allocation                                              F (U)
 DBCSR| Use RMA algorithm                                                      F (U)
 DBCSR| Use Communication thread                                               T (U)
 DBCSR| Communication thread load                                             60 (D)
 DBCSR| MPI: My process id                                                     0
 DBCSR| MPI: Number of processes                                              80
 DBCSR| OMP: Current number of threads                                         8
 DBCSR| OMP: Max number of threads                                             8
 DBCSR| Split modifier for TAS multiplication algorithm                  1.0E+00 (U)


  **** **** ******  **  PROGRAM STARTED AT               2025-06-04 16:13:20.554
 ***** ** ***  *** **   PROGRAM STARTED ON                              n2cn0202
 **    ****   ******    PROGRAM STARTED BY                              metdyn02
 ***** **    ** ** **   PROGRAM PROCESS ID                               2418473
  **** **  *******  **  PROGRAM STARTED IN /scratch/hpc-prf-metdyn/metdyn02_Remi
                                           /10_MOL/05_MOL/aUKBqsEOTmq69kFe5R_nOg
                                           /5k_set_final_qzvp/QARVOV/SZVSR/TDDFT
                                           /RILIM

 CP2K| version string:                 CP2K version 2025.1 (Development Version)
 CP2K| source code revision number:                                  git:32ddf85
 CP2K| cp2kflags: omp libint fftw3 libxc libgrpp elpa parallel scalapack mpi_f08
 CP2K|             cosma xsmm plumed2 spglib libvori libbqb libvdwxc hdf5
 CP2K| is freely available from                            https://www.cp2k.org/
 CP2K| Program compiled at                         Mon May 19 11:32:37 CEST 2025
 CP2K| Program compiled on                                              n2login1
 CP2K| Program compiled for                                                local
 CP2K| Data directory path    /opt/software/pc2/EB-SW/software/CP2K/2024.1-foss-
 CP2K| Input file name                                                    GW.inp

 GLOBAL| Force Environment number                                              1
 GLOBAL| Basis set file name            /scratch/hpc-prf-metdyn/metdyn02_Remi/BA
 GLOBAL| Potential file name            /pc2/groups/hpc-prf-metdyn/metdyn02_Remi
 GLOBAL| MM Potential file name                                     MM_POTENTIAL
 GLOBAL| Coordinate file name                                      __STD_INPUT__
 GLOBAL| Method name                                                        CP2K
 GLOBAL| Project name                                                       MoS2
 GLOBAL| Run type                                                         ENERGY
 GLOBAL| FFT library                                                       FFTW3
 GLOBAL| Diagonalization library                                            ELPA
 GLOBAL| Cholesky decomposition library                                ScaLAPACK
 GLOBAL| DGEMM library                                                      BLAS
 GLOBAL| Minimum number of eigenvectors for ELPA usage                        16
 GLOBAL| Orthonormality check for eigenvectors                          DISABLED
 GLOBAL| Matrix multiplication library                                     COSMA
 GLOBAL| All-to-all communication in single precision                          F
 GLOBAL| FFTs using library dependent lengths                                  F
 GLOBAL| Grid backend                                                       AUTO
 GLOBAL| Global print level                                               MEDIUM
 GLOBAL| MPI I/O enabled                                                       T
 GLOBAL| Total number of message passing processes                            80
 GLOBAL| Number of threads for this process                                    8
 GLOBAL| This output is from process                                           0
 GLOBAL| OpenMP stack size per thread (OMP_STACKSIZE)                    default
 GLOBAL| CPU model name                          AMD EPYC 7763 64-Core Processor
 GLOBAL| CPUID                                                              1002

 MEMORY| system memory details [Kb]
 MEMORY|                        rank 0           min           max       average
 MEMORY| MemTotal            263897600     263897552     263897668     263897598
 MEMORY| MemFree             246430464     246120296     251169772     248914426
 MEMORY| Buffers                127784         34640        132532         57737
 MEMORY| Cached               11846772       7870340      12897132      10045374
 MEMORY| Slab                  2108940       1313628       2401356       1679007
 MEMORY| SReclaimable           629484        213076        989824        360549
 MEMORY| MemLikelyFree       259034504     259034504     259742688     259378087


 *** Fundamental physical constants (SI units) ***

 *** Literature: B. J. Mohr and B. N. Taylor,
 ***             CODATA recommended values of the fundamental physical
 ***             constants: 2006, Web Version 5.1
 ***             http://physics.nist.gov/constants

 Speed of light in vacuum [m/s]                             2.99792458000000E+08
 Magnetic constant or permeability of vacuum [N/A**2]       1.25663706143592E-06
 Electric constant or permittivity of vacuum [F/m]          8.85418781762039E-12
 Planck constant (h) [J*s]                                  6.62606896000000E-34
 Planck constant (h-bar) [J*s]                              1.05457162825177E-34
 Elementary charge [C]                                      1.60217648700000E-19
 Electron mass [kg]                                         9.10938215000000E-31
 Electron g factor [ ]                                     -2.00231930436220E+00
 Proton mass [kg]                                           1.67262163700000E-27
 Fine-structure constant                                    7.29735253760000E-03
 Rydberg constant [1/m]                                     1.09737315685270E+07
 Avogadro constant [1/mol]                                  6.02214179000000E+23
 Boltzmann constant [J/K]                                   1.38065040000000E-23
 Atomic mass unit [kg]                                      1.66053878200000E-27
 Bohr radius [m]                                            5.29177208590000E-11

 *** Conversion factors ***

 [u] -> [a.u.]                                              1.82288848426455E+03
 [Angstrom] -> [Bohr] = [a.u.]                              1.88972613288564E+00
 [a.u.] = [Bohr] -> [Angstrom]                              5.29177208590000E-01
 [a.u.] -> [s]                                              2.41888432650478E-17
 [a.u.] -> [fs]                                             2.41888432650478E-02
 [a.u.] -> [J]                                              4.35974393937059E-18
 [a.u.] -> [N]                                              8.23872205491840E-08
 [a.u.] -> [K]                                              3.15774647902944E+05
 [a.u.] -> [kJ/mol]                                         2.62549961709828E+03
 [a.u.] -> [kcal/mol]                                       6.27509468713739E+02
 [a.u.] -> [Pa]                                             2.94210107994716E+13
 [a.u.] -> [bar]                                            2.94210107994716E+08
 [a.u.] -> [atm]                                            2.90362800883016E+08
 [a.u.] -> [eV]                                             2.72113838565563E+01
 [a.u.] -> [Hz]                                             6.57968392072181E+15
 [a.u.] -> [1/cm] (wave numbers)                            2.19474631370540E+05
 [a.u./Bohr**2] -> [1/cm]                                   5.14048714338585E+03
 

 CELL_TOP| Volume [angstrom^3]:                                     27000.000000
 CELL_TOP| Vector a [angstrom    30.000     0.000     0.000   |a| =    30.000000
 CELL_TOP| Vector b [angstrom     0.000    30.000     0.000   |b| =    30.000000
 CELL_TOP| Vector c [angstrom     0.000     0.000    30.000   |c| =    30.000000
 CELL_TOP| Angle (b,c), alpha [degree]:                                90.000000
 CELL_TOP| Angle (a,c), beta  [degree]:                                90.000000
 CELL_TOP| Angle (a,b), gamma [degree]:                                90.000000
 CELL_TOP| Numerically orthorhombic:                                         YES
 CELL_TOP| Periodicity                                                      NONE

 GENERATE|  Preliminary Number of Bonds generated:                             0
 GENERATE|  Achieved consistency in connectivity generation.

 CELL| Volume [angstrom^3]:                                         27000.000000
 CELL| Vector a [angstrom]:      30.000     0.000     0.000   |a| =    30.000000
 CELL| Vector b [angstrom]:       0.000    30.000     0.000   |b| =    30.000000
 CELL| Vector c [angstrom]:       0.000     0.000    30.000   |c| =    30.000000
 CELL| Angle (b,c), alpha [degree]:                                    90.000000
 CELL| Angle (a,c), beta  [degree]:                                    90.000000
 CELL| Angle (a,b), gamma [degree]:                                    90.000000
 CELL| Numerically orthorhombic:                                             YES
 CELL| Periodicity                                                          NONE

 CELL_REF| Volume [angstrom^3]:                                     27000.000000
 CELL_REF| Vector a [angstrom    30.000     0.000     0.000   |a| =    30.000000
 CELL_REF| Vector b [angstrom     0.000    30.000     0.000   |b| =    30.000000
 CELL_REF| Vector c [angstrom     0.000     0.000    30.000   |c| =    30.000000
 CELL_REF| Angle (b,c), alpha [degree]:                                90.000000
 CELL_REF| Angle (a,c), beta  [degree]:                                90.000000
 CELL_REF| Angle (a,b), gamma [degree]:                                90.000000
 CELL_REF| Numerically orthorhombic:                                         YES
 CELL_REF| Periodicity                                                      NONE

 *******************************************************************************
 *******************************************************************************
 **                                                                           **
 **     #####                         ##              ##                      **
 **    ##   ##            ##          ##              ##                      **
 **   ##     ##                       ##            ######                    **
 **   ##     ##  ##   ##  ##   #####  ##  ##   ####   ##    #####    #####    **
 **   ##     ##  ##   ##  ##  ##      ## ##   ##      ##   ##   ##  ##   ##   **
 **   ##  ## ##  ##   ##  ##  ##      ####     ###    ##   ######   ######    **
 **    ##  ###   ##   ##  ##  ##      ## ##      ##   ##   ##       ##        **
 **     #######   #####   ##   #####  ##  ##  ####    ##    #####   ##        **
 **           ##                                                    ##        **
 **                                                                           **
 **                                                ... make the atoms dance   **
 **                                                                           **
 **            Copyright (C) by CP2K developers group (2000-2025)             **
 **                      J. Chem. Phys. 152, 194103 (2020)                    **
 **                                                                           **
 *******************************************************************************

 DFT| Spin restricted Kohn-Sham (RKS) calculation                            RKS
 DFT| Multiplicity                                                             1
 DFT| Number of spin states                                                    1
 DFT| Charge                                                                   0
 DFT| Self-interaction correction (SIC)                                       NO
 DFT| Cutoffs: density                                              1.000000E-10
 DFT|          gradient                                             1.000000E-10
 DFT|          tau                                                  1.000000E-10
 DFT|          cutoff_smoothing_range                               0.000000E+00
 DFT| XC density smoothing                                                  NONE
 DFT| XC derivatives                                                          PW

 FUNCTIONAL| PBE:
 FUNCTIONAL| J.P.Perdew, K.Burke, M.Ernzerhof, Phys. Rev. Letter, vol. 77, n 18,
 FUNCTIONAL|  pp. 3865-3868, (1996)sx=0.750sc=1.000{spin unpolarized}           


 QS| Method:                                                                GAPW
 QS| Density plane wave grid type                        NON-SPHERICAL FULLSPACE
 QS| Number of grid levels:                                                    4
 QS| Density cutoff [a.u.]:                                                250.0
 QS| Multi grid cutoff [a.u.]: 1) grid level                               250.0
 QS|                           2) grid level                                83.3
 QS|                           3) grid level                                27.8
 QS|                           4) grid level                                 9.3
 QS| Grid level progression factor:                                          3.0
 QS| Relative density cutoff [a.u.]:                                        50.0
 QS| Interaction thresholds: eps_pgf_orb:                                1.0E-12
 QS|                         eps_filter_matrix:                          0.0E+00
 QS|                         eps_core_charge:                            1.0E-14
 QS|                         eps_rho_gspace:                             1.0E-12
 QS|                         eps_rho_rspace:                             1.0E-12
 QS|                         eps_gvg_rspace:                             1.0E-06
 QS|                         eps_ppl:                                    1.0E-02
 QS|                         eps_ppnl:                                   1.0E-08
 QS| GAPW|      One center basis from orbital basis primitives
 QS| GAPW|                   eps_fit:                                    1.0E-04
 QS| GAPW|                   eps_iso:                                    1.0E-12
 QS| GAPW|                   eps_svd:                                    1.0E-08
 QS| GAPW|                   eps_cpc:                                    1.0E-12
 QS| GAPW|   atom-r-grid: quadrature:                                     GC_LOG
 QS| GAPW|      atom-s-grid:  max l :                                          4
 QS| GAPW|      max_l_rho0 :                                                   2
 QS| GAPW|      At least one kind is NOT PAW, i.e. it has only soft AO 
 QS| GAPW|      The NOT PAW atoms are treated fully GPW


 ATOMIC KIND INFORMATION

  1. Atomic kind: H                                     Number of atoms:       3

     Orbital Basis Set                                      aug-SZV-MOLOPT-ae-SR

       Number of orbital shell sets:                                           1
       Number of orbital shells:                                               4
       Number of primitive Cartesian functions:                                4
       Number of Cartesian basis functions:                                    6
       Number of spherical basis functions:                                    6
       Norm type:                                                              2

       Normalised Cartesian orbitals:

                        Set   Shell   Orbital            Exponent    Coefficient

                          1       1    2s                0.065428       0.000000
                                                         0.168855       0.083474
                                                         0.623914       0.267839
                                                         3.425251       0.276934

                          1       2    3s                0.065428      -0.066952
                                                         0.168855       0.261968
                                                         0.623914       0.081548
                                                         3.425251      -0.022414

                          1       3    4s                0.065428       0.165615
                                                         0.168855      -0.226449
                                                         0.623914      -0.005802
                                                         3.425251       0.005451

                          1       4    3px               0.065428       0.053063
                                                         0.168855      -0.030502
                                                         0.623914       0.062721
                                                         3.425251       0.019012
                          1       4    3py               0.065428       0.053063
                                                         0.168855      -0.030502
                                                         0.623914       0.062721
                                                         3.425251       0.019012
                          1       4    3pz               0.065428       0.053063
                                                         0.168855      -0.030502
                                                         0.623914       0.062721
                                                         3.425251       0.019012

     RI Auxiliary Basis Set             RI_aug-SZV-MOLOPT-ae-SR_N_RI_035_s_p_d_f

       Number of orbital shell sets:                                          15
       Number of orbital shells:                                              15
       Number of primitive Cartesian functions:                               15
       Number of Cartesian basis functions:                                   37
       Number of spherical basis functions:                                   35
       Norm type:                                                              2

       Normalised Cartesian orbitals:

                        Set   Shell   Orbital            Exponent    Coefficient

                          1       1    1s                0.236911       0.242019

                          2       1    8px               0.347892       0.380843
                          2       1    8py               0.347892       0.380843
                          2       1    8pz               0.347892       0.380843

                          3       1    2s                0.423897       0.374417

                          4       1    9px               0.493166       0.589089
                          4       1    9py               0.493166       0.589089
                          4       1    9pz               0.493166       0.589089

                          5       1   14dx2              0.625366       0.723843
                          5       1   14dxy              0.625366       1.253733
                          5       1   14dxz              0.625366       1.253733
                          5       1   14dy2              0.625366       0.723843
                          5       1   14dyz              0.625366       1.253733
                          5       1   14dz2              0.625366       0.723843

                          6       1   10px               0.699103       0.911206
                          6       1   10py               0.699103       0.911206
                          6       1   10pz               0.699103       0.911206

                          7       1    3s                0.758464       0.579244

                          8       1   11px               0.991036       1.409457
                          8       1   11py               0.991036       1.409457
                          8       1   11pz               0.991036       1.409457

                          9       1   15dx2              1.286053       2.556305
                          9       1   15dxy              1.286053       4.427650
                          9       1   15dxz              1.286053       4.427650
                          9       1   15dy2              1.286053       2.556305
                          9       1   15dyz              1.286053       4.427650
                          9       1   15dz2              1.286053       2.556305

                         10       1    4s                1.357095       0.896123

                         11       1   12px               1.404875       2.180155
                         11       1   12py               1.404875       2.180155
                         11       1   12pz               1.404875       2.180155

                         12       1   13px               1.991527       3.372273
                         12       1   13py               1.991527       3.372273
                         12       1   13pz               1.991527       3.372273

                         13       1    5s                2.428204       1.386354

                         14       1    6s                4.344704       2.144768

                         15       1    7s                7.773833       3.318077

       Atomic covalent radius [Angstrom]:                                  0.320

       Atomic van der Waals radius [Angstrom]:                             1.090

     AE Potential information for                                            ALL

       Description:                                       All-electron potential
                                          Krack, Parrinello, PCCP 2, 2105 (2000)

       Gaussian exponent of the core charge distribution:              12.500000
       Electronic configuration (s p d ...):                           1   0   0

  2. Atomic kind: C                                     Number of atoms:       4

     Orbital Basis Set                                      aug-SZV-MOLOPT-ae-SR

       Number of orbital shell sets:                                           2
       Number of orbital shells:                                               6
       Number of primitive Cartesian functions:                                7
       Number of Cartesian basis functions:                                   15
       Number of spherical basis functions:                                   14
       Norm type:                                                              2

       Normalised Cartesian orbitals:

                        Set   Shell   Orbital            Exponent    Coefficient

                          1       1    2s                0.114559       0.000000
                                                         0.222290       0.161536
                                                         0.683483       0.214036
                                                         2.941249      -0.160017

                          1       2    3s                0.114559       0.078076
                                                         0.222290       0.130402
                                                         0.683483      -0.084834
                                                         2.941249       0.041379

                          1       3    3px               0.114559       0.000000
                                                         0.222290       0.085276
                                                         0.683483       0.538304
                                                         2.941249       0.856045
                          1       3    3py               0.114559       0.000000
                                                         0.222290       0.085276
                                                         0.683483       0.538304
                                                         2.941249       0.856045
                          1       3    3pz               0.114559       0.000000
                                                         0.222290       0.085276
                                                         0.683483       0.538304
                                                         2.941249       0.856045

                          1       4    4px               0.114559       0.224492
                                                         0.222290      -0.546182
                                                         0.683483       0.918493
                                                         2.941249      -0.348342
                          1       4    4py               0.114559       0.224492
                                                         0.222290      -0.546182
                                                         0.683483       0.918493
                                                         2.941249      -0.348342
                          1       4    4pz               0.114559       0.224492
                                                         0.222290      -0.546182
                                                         0.683483       0.918493
                                                         2.941249      -0.348342

                          1       5    4dx2              0.114559       0.004023
                                                         0.222290       0.096934
                                                         0.683483       0.116751
                                                         2.941249       0.357653
                          1       5    4dxy              0.114559       0.006968
                                                         0.222290       0.167895
                                                         0.683483       0.202218
                                                         2.941249       0.619473
                          1       5    4dxz              0.114559       0.006968
                                                         0.222290       0.167895
                                                         0.683483       0.202218
                                                         2.941249       0.619473
                          1       5    4dy2              0.114559       0.004023
                                                         0.222290       0.096934
                                                         0.683483       0.116751
                                                         2.941249       0.357653
                          1       5    4dyz              0.114559       0.006968
                                                         0.222290       0.167895
                                                         0.683483       0.202218
                                                         2.941249       0.619473
                          1       5    4dz2              0.114559       0.004023
                                                         0.222290       0.096934
                                                         0.683483       0.116751
                                                         2.941249       0.357653

                          2       1    1s               71.616837       2.707814
                                                        13.045096       2.618880
                                                         3.530512       0.816191

     RI Auxiliary Basis Set             RI_aug-SZV-MOLOPT-ae-SR_N_RI_075_s_p_d_f

       Number of orbital shell sets:                                          19
       Number of orbital shells:                                              19
       Number of primitive Cartesian functions:                               19
       Number of Cartesian basis functions:                                   99
       Number of spherical basis functions:                                   75
       Norm type:                                                              2

       Normalised Cartesian orbitals:

                        Set   Shell   Orbital            Exponent    Coefficient

                          1       1    7px               0.280788       0.291348
                          1       1    7py               0.280788       0.291348
                          1       1    7pz               0.280788       0.291348

                          2       1    1s                0.306994       0.293939

                          3       1   12dx2              0.425885       0.369548
                          3       1   12dxy              0.425885       0.640076
                          3       1   12dxz              0.425885       0.640076
                          3       1   12dy2              0.425885       0.369548
                          3       1   12dyz              0.425885       0.640076
                          3       1   12dz2              0.425885       0.369548

                          4       1   15fx3              0.441457       0.233859
                          4       1   15fx2y             0.441457       0.522924
                          4       1   15fx2z             0.441457       0.522924
                          4       1   15fxy2             0.441457       0.522924
                          4       1   15fxyz             0.441457       0.905731
                          4       1   15fxz2             0.441457       0.522924
                          4       1   15fy3              0.441457       0.233859
                          4       1   15fy2z             0.441457       0.522924
                          4       1   15fyz2             0.441457       0.522924
                          4       1   15fz3              0.441457       0.233859

                          5       1    8px               0.477699       0.566087
                          5       1    8py               0.477699       0.566087
                          5       1    8pz               0.477699       0.566087

                          6       1   16fx3              0.901688       1.166355
                          6       1   16fx2y             0.901688       2.608049
                          6       1   16fx2z             0.901688       2.608049
                          6       1   16fxy2             0.901688       2.608049
                          6       1   16fxyz             0.901688       4.517273
                          6       1   16fxz2             0.901688       2.608049
                          6       1   16fy3              0.901688       1.166355
                          6       1   16fy2z             0.901688       2.608049
                          6       1   16fyz2             0.901688       2.608049
                          6       1   16fz3              0.901688       1.166355

                          7       1   18gx4              0.934410       0.923449
                          7       1   18gx3y             0.934410       2.443217
                          7       1   18gx3z             0.934410       2.443217
                          7       1   18gx2y2            0.934410       3.154180
                          7       1   18gx2yz            0.934410       5.463200
                          7       1   18gx2z2            0.934410       3.154180
                          7       1   18gxy3             0.934410       2.443217
                          7       1   18gxy2z            0.934410       5.463200
                          7       1   18gxyz2            0.934410       5.463200
                          7       1   18gxz3             0.934410       2.443217
                          7       1   18gy4              0.934410       0.923449
                          7       1   18gy3z             0.934410       2.443217
                          7       1   18gy2z2            0.934410       3.154180
                          7       1   18gyz3             0.934410       2.443217
                          7       1   18gz4              0.934410       0.923449

                          8       1    2s                0.946862       0.684109

                          9       1    3s                1.268857       0.852059

                         10       1   13dx2              1.288245       2.563934
                         10       1   13dxy              1.288245       4.440865
                         10       1   13dxz              1.288245       4.440865
                         10       1   13dy2              1.288245       2.563934
                         10       1   13dyz              1.288245       4.440865
                         10       1   13dz2              1.288245       2.563934

                         11       1    9px               1.399800       2.170315
                         11       1    9py               1.399800       2.170315
                         11       1    9pz               1.399800       2.170315

                         12       1   19gx4              1.535589       3.619858
                         12       1   19gx3y             1.535589       9.577244
                         12       1   19gx3z             1.535589       9.577244
                         12       1   19gx2y2            1.535589      12.364169
                         12       1   19gx2yz            1.535589      21.415368
                         12       1   19gx2z2            1.535589      12.364169
                         12       1   19gxy3             1.535589       9.577244
                         12       1   19gxy2z            1.535589      21.415368
                         12       1   19gxyz2            1.535589      21.415368
                         12       1   19gxz3             1.535589       9.577244
                         12       1   19gy4              1.535589       3.619858
                         12       1   19gy3z             1.535589       9.577244
                         12       1   19gy2z2            1.535589      12.364169
                         12       1   19gyz3             1.535589       9.577244
                         12       1   19gz4              1.535589       3.619858

                         13       1   14dx2              2.335379       7.261643
                         13       1   14dxy              2.335379      12.577535
                         13       1   14dxz              2.335379      12.577535
                         13       1   14dy2              2.335379       7.261643
                         13       1   14dyz              2.335379      12.577535
                         13       1   14dz2              2.335379       7.261643

                         14       1   17fx3              2.532110      11.906668
                         14       1   17fx2y             2.532110      26.624119
                         14       1   17fx2z             2.532110      26.624119
                         14       1   17fxy2             2.532110      26.624119
                         14       1   17fxyz             2.532110      46.114327
                         14       1   17fxz2             2.532110      26.624119
                         14       1   17fy3              2.532110      11.906668
                         14       1   17fy2z             2.532110      26.624119
                         14       1   17fyz2             2.532110      26.624119
                         14       1   17fz3              2.532110      11.906668

                         15       1   10px               4.817840      10.174323
                         15       1   10py               4.817840      10.174323
                         15       1   10pz               4.817840      10.174323

                         16       1    4s                4.925178       2.356278

                         17       1   11px              16.202890      46.337296
                         17       1   11py              16.202890      46.337296
                         17       1   11pz              16.202890      46.337296

                         18       1    5s               21.643648       7.151678

                         19       1    6s               78.500404      18.795938

       Atomic covalent radius [Angstrom]:                                  0.770

       Atomic van der Waals radius [Angstrom]:                             1.700

     The atoms of this atomic kind are PAW atoms (GAPW):
       Hard Gaussian function radius:                                      1.512
       Rho0 radius:                                                        1.512
       Maximum GTO radius used for PAW projector construction:            24.566

     GAPW Soft Basis Set                               aug-SZV-MOLOPT-ae-SR_soft

       Number of orbital shell sets:                                           2
       Number of orbital shells:                                               6
       Number of primitive Cartesian functions:                                5
       Number of Cartesian basis functions:                                   15
       Number of spherical basis functions:                                   14
       Norm type:                                                              2

       Normalised Cartesian orbitals:

                        Set   Shell   Orbital            Exponent    Coefficient

                          1       1    2s                0.114559       0.000000
                                                         0.222290       0.161536
                                                         0.683483       0.214036
                                                         2.941249      -0.160017

                          1       2    3s                0.114559       0.078076
                                                         0.222290       0.130402
                                                         0.683483      -0.084834
                                                         2.941249       0.041379

                          1       3    3px               0.114559       0.000000
                                                         0.222290       0.085276
                                                         0.683483       0.538304
                                                         2.941249       0.856045
                          1       3    3py               0.114559       0.000000
                                                         0.222290       0.085276
                                                         0.683483       0.538304
                                                         2.941249       0.856045
                          1       3    3pz               0.114559       0.000000
                                                         0.222290       0.085276
                                                         0.683483       0.538304
                                                         2.941249       0.856045

                          1       4    4px               0.114559       0.224492
                                                         0.222290      -0.546182
                                                         0.683483       0.918493
                                                         2.941249      -0.348342
                          1       4    4py               0.114559       0.224492
                                                         0.222290      -0.546182
                                                         0.683483       0.918493
                                                         2.941249      -0.348342
                          1       4    4pz               0.114559       0.224492
                                                         0.222290      -0.546182
                                                         0.683483       0.918493
                                                         2.941249      -0.348342

                          1       5    4dx2              0.114559       0.004023
                                                         0.222290       0.096934
                                                         0.683483       0.116751
                                                         2.941249       0.357653
                          1       5    4dxy              0.114559       0.006968
                                                         0.222290       0.167895
                                                         0.683483       0.202218
                                                         2.941249       0.619473
                          1       5    4dxz              0.114559       0.006968
                                                         0.222290       0.167895
                                                         0.683483       0.202218
                                                         2.941249       0.619473
                          1       5    4dy2              0.114559       0.004023
                                                         0.222290       0.096934
                                                         0.683483       0.116751
                                                         2.941249       0.357653
                          1       5    4dyz              0.114559       0.006968
                                                         0.222290       0.167895
                                                         0.683483       0.202218
                                                         2.941249       0.619473
                          1       5    4dz2              0.114559       0.004023
                                                         0.222290       0.096934
                                                         0.683483       0.116751
                                                         2.941249       0.357653

                          2       1    1s                3.530512       0.816191

     AE Potential information for                                            ALL

       Description:                                       All-electron potential
                                          Krack, Parrinello, PCCP 2, 2105 (2000)

       Gaussian exponent of the core charge distribution:               4.109048
       Electronic configuration (s p d ...):                           4   2   0

  3. Atomic kind: N                                     Number of atoms:       1

     Orbital Basis Set                                      aug-SZV-MOLOPT-ae-SR

       Number of orbital shell sets:                                           2
       Number of orbital shells:                                               6
       Number of primitive Cartesian functions:                                7
       Number of Cartesian basis functions:                                   15
       Number of spherical basis functions:                                   14
       Norm type:                                                              2

       Normalised Cartesian orbitals:

                        Set   Shell   Orbital            Exponent    Coefficient

                          1       1    1s                0.112012       0.000000
                                                         0.285714       0.194997
                                                         0.878497       0.258372
                                                         3.780456      -0.193164

                          1       2    2s                0.112012       0.083551
                                                         0.285714      -0.189186
                                                         0.878497      -0.469875
                                                         3.780456      -0.002085

                          1       3    2px               0.112012       0.000000
                                                         0.285714       0.116706
                                                         0.878497       0.736704
                                                         3.780456       1.171553
                          1       3    2py               0.112012       0.000000
                                                         0.285714       0.116706
                                                         0.878497       0.736704
                                                         3.780456       1.171553
                          1       3    2pz               0.112012       0.000000
                                                         0.285714       0.116706
                                                         0.878497       0.736704
                                                         3.780456       1.171553

                          1       4    3px               0.112012       0.141957
                                                         0.285714      -0.286713
                                                         0.878497       0.074784
                                                         3.780456       0.008085
                          1       4    3py               0.112012       0.141957
                                                         0.285714      -0.286713
                                                         0.878497       0.074784
                                                         3.780456       0.008085
                          1       4    3pz               0.112012       0.141957
                                                         0.285714      -0.286713
                                                         0.878497       0.074784
                                                         3.780456       0.008085

                          1       5    3dx2              0.112012      -0.000364
                                                         0.285714       0.186009
                                                         0.878497      -0.044751
                                                         3.780456       1.815169
                          1       5    3dxy              0.112012      -0.000630
                                                         0.285714       0.322177
                                                         0.878497      -0.077512
                                                         3.780456       3.143965
                          1       5    3dxz              0.112012      -0.000630
                                                         0.285714       0.322177
                                                         0.878497      -0.077512
                                                         3.780456       3.143965
                          1       5    3dy2              0.112012      -0.000364
                                                         0.285714       0.186009
                                                         0.878497      -0.044751
                                                         3.780456       1.815169
                          1       5    3dyz              0.112012      -0.000630
                                                         0.285714       0.322177
                                                         0.878497      -0.077512
                                                         3.780456       3.143965
                          1       5    3dz2              0.112012      -0.000364
                                                         0.285714       0.186009
                                                         0.878497      -0.044751
                                                         3.780456       1.815169

                          2       1    1s               99.106169       3.454881
                                                        18.052312       3.341410
                                                         4.885660       1.041372

     RI Auxiliary Basis Set             RI_aug-SZV-MOLOPT-ae-SR_N_RI_089_s_p_d_f

       Number of orbital shell sets:                                          21
       Number of orbital shells:                                              21
       Number of primitive Cartesian functions:                               21
       Number of Cartesian basis functions:                                  120
       Number of spherical basis functions:                                   89
       Norm type:                                                              2

       Normalised Cartesian orbitals:

                        Set   Shell   Orbital            Exponent    Coefficient

                          1       1    1s                0.267502       0.265097

                          2       1    7px               0.363169       0.401861
                          2       1    7py               0.363169       0.401861
                          2       1    7pz               0.363169       0.401861

                          3       1   12dx2              0.369517       0.288250
                          3       1   12dxy              0.369517       0.499264
                          3       1   12dxz              0.369517       0.499264
                          3       1   12dy2              0.369517       0.288250
                          3       1   12dyz              0.369517       0.499264
                          3       1   12dz2              0.369517       0.288250

                          4       1    2s                0.470345       0.404783

                          5       1   16fx3              0.516119       0.332385
                          5       1   16fx2y             0.516119       0.743236
                          5       1   16fx2z             0.516119       0.743236
                          5       1   16fxy2             0.516119       0.743236
                          5       1   16fxyz             0.516119       1.287322
                          5       1   16fxz2             0.516119       0.743236
                          5       1   16fy3              0.516119       0.332385
                          5       1   16fy2z             0.516119       0.743236
                          5       1   16fyz2             0.516119       0.743236
                          5       1   16fz3              0.516119       0.332385

                          6       1   13dx2              0.573630       0.622322
                          6       1   13dxy              0.573630       1.077893
                          6       1   13dxz              0.573630       1.077893
                          6       1   13dy2              0.573630       0.622322
                          6       1   13dyz              0.573630       1.077893
                          6       1   13dz2              0.573630       0.622322

                          7       1    8px               0.636008       0.809596
                          7       1    8py               0.636008       0.809596
                          7       1    8pz               0.636008       0.809596

                          8       1   19gx4              0.870859       0.760838
                          8       1   19gx3y             0.870859       2.012988
                          8       1   19gx3z             0.870859       2.012988
                          8       1   19gx2y2            0.870859       2.598756
                          8       1   19gx2yz            0.870859       4.501178
                          8       1   19gx2z2            0.870859       2.598756
                          8       1   19gxy3             0.870859       2.012988
                          8       1   19gxy2z            0.870859       4.501178
                          8       1   19gxyz2            0.870859       4.501178
                          8       1   19gxz3             0.870859       2.012988
                          8       1   19gy4              0.870859       0.760838
                          8       1   19gy3z             0.870859       2.012988
                          8       1   19gy2z2            0.870859       2.598756
                          8       1   19gyz3             0.870859       2.012988
                          8       1   19gz4              0.870859       0.760838

                          9       1   17fx3              1.154647       2.034537
                          9       1   17fx2y             1.154647       4.549363
                          9       1   17fx2z             1.154647       4.549363
                          9       1   17fxy2             1.154647       4.549363
                          9       1   17fxyz             1.154647       7.879729
                          9       1   17fxz2             1.154647       4.549363
                          9       1   17fy3              1.154647       2.034537
                          9       1   17fy2z             1.154647       4.549363
                          9       1   17fyz2             1.154647       4.549363
                          9       1   17fz3              1.154647       2.034537

                         10       1   20gx4              1.247848       2.045878
                         10       1   20gx3y             1.247848       5.412884
                         10       1   20gx3z             1.247848       5.412884
                         10       1   20gx2y2            1.247848       6.988003
                         10       1   20gx2yz            1.247848      12.103577
                         10       1   20gx2z2            1.247848       6.988003
                         10       1   20gxy3             1.247848       5.412884
                         10       1   20gxy2z            1.247848      12.103577
                         10       1   20gxyz2            1.247848      12.103577
                         10       1   20gxz3             1.247848       5.412884
                         10       1   20gy4              1.247848       2.045878
                         10       1   20gy3z             1.247848       5.412884
                         10       1   20gy2z2            1.247848       6.988003
                         10       1   20gyz3             1.247848       5.412884
                         10       1   20gz4              1.247848       2.045878

                         11       1    3s                1.608218       1.017815

                         12       1   21gx4              1.820317       5.778825
                         12       1   21gx3y             1.820317      15.289334
                         12       1   21gx3z             1.820317      15.289334
                         12       1   21gx2y2            1.820317      19.738445
                         12       1   21gx2yz            1.820317      34.187990
                         12       1   21gx2z2            1.820317      19.738445
                         12       1   21gxy3             1.820317      15.289334
                         12       1   21gxy2z            1.820317      34.187990
                         12       1   21gxyz2            1.820317      34.187990
                         12       1   21gxz3             1.820317      15.289334
                         12       1   21gy4              1.820317       5.778825
                         12       1   21gy3z             1.820317      15.289334
                         12       1   21gy2z2            1.820317      19.738445
                         12       1   21gyz3             1.820317      15.289334
                         12       1   21gz4              1.820317       5.778825

                         13       1   14dx2              2.087918       5.969089
                         13       1   14dxy              2.087918      10.338765
                         13       1   14dxz              2.087918      10.338765
                         13       1   14dy2              2.087918       5.969089
                         13       1   14dyz              2.087918      10.338765
                         13       1   14dz2              2.087918       5.969089

                         14       1    9px               2.537910       4.565993
                         14       1    9py               2.537910       4.565993
                         14       1    9pz               2.537910       4.565993

                         15       1   18fx3              3.628403      26.749427
                         15       1   18fx2y             3.628403      59.813538
                         15       1   18fx2z             3.628403      59.813538
                         15       1   18fxy2             3.628403      59.813538
                         15       1   18fxyz             3.628403     103.600086
                         15       1   18fxz2             3.628403      59.813538
                         15       1   18fy3              3.628403      26.749427
                         15       1   18fy2z             3.628403      59.813538
                         15       1   18fyz2             3.628403      59.813538
                         15       1   18fz3              3.628403      26.749427

                         16       1   15dx2              5.366720      31.145839
                         16       1   15dxy              5.366720      53.946175
                         16       1   15dxz              5.366720      53.946175
                         16       1   15dy2              5.366720      31.145839
                         16       1   15dyz              5.366720      53.946175
                         16       1   15dz2              5.366720      31.145839

                         17       1    4s                7.348149       3.180853

                         18       1   10px               7.396841      17.387931
                         18       1   10py               7.396841      17.387931
                         18       1   10pz               7.396841      17.387931

                         19       1   11px              21.508501      66.024142
                         19       1   11py              21.508501      66.024142
                         19       1   11pz              21.508501      66.024142

                         20       1    5s               29.895673       9.112055

                         21       1    6s              109.779167      24.171302

       Atomic covalent radius [Angstrom]:                                  0.750

       Atomic van der Waals radius [Angstrom]:                             1.550

     The atoms of this atomic kind are PAW atoms (GAPW):
       Hard Gaussian function radius:                                      1.512
       Rho0 radius:                                                        1.512
       Maximum GTO radius used for PAW projector construction:            24.566

     GAPW Soft Basis Set                               aug-SZV-MOLOPT-ae-SR_soft

       Number of orbital shell sets:                                           2
       Number of orbital shells:                                               6
       Number of primitive Cartesian functions:                                4
       Number of Cartesian basis functions:                                   15
       Number of spherical basis functions:                                   14
       Norm type:                                                              2

       Normalised Cartesian orbitals:

                        Set   Shell   Orbital            Exponent    Coefficient

                          1       1    1s                0.112012       0.000000
                                                         0.285714       0.194997
                                                         0.878497       0.258372
                                                         3.780456      -0.193164

                          1       2    2s                0.112012       0.083551
                                                         0.285714      -0.189186
                                                         0.878497      -0.469875
                                                         3.780456      -0.002085

                          1       3    2px               0.112012       0.000000
                                                         0.285714       0.116706
                                                         0.878497       0.736704
                                                         3.780456       1.171553
                          1       3    2py               0.112012       0.000000
                                                         0.285714       0.116706
                                                         0.878497       0.736704
                                                         3.780456       1.171553
                          1       3    2pz               0.112012       0.000000
                                                         0.285714       0.116706
                                                         0.878497       0.736704
                                                         3.780456       1.171553

                          1       4    3px               0.112012       0.141957
                                                         0.285714      -0.286713
                                                         0.878497       0.074784
                                                         3.780456       0.008085
                          1       4    3py               0.112012       0.141957
                                                         0.285714      -0.286713
                                                         0.878497       0.074784
                                                         3.780456       0.008085
                          1       4    3pz               0.112012       0.141957
                                                         0.285714      -0.286713
                                                         0.878497       0.074784
                                                         3.780456       0.008085

                          1       5    3dx2              0.112012      -0.000364
                                                         0.285714       0.186009
                                                         0.878497      -0.044751
                                                         3.780456       1.815169
                          1       5    3dxy              0.112012      -0.000630
                                                         0.285714       0.322177
                                                         0.878497      -0.077512
                                                         3.780456       3.143965
                          1       5    3dxz              0.112012      -0.000630
                                                         0.285714       0.322177
                                                         0.878497      -0.077512
                                                         3.780456       3.143965
                          1       5    3dy2              0.112012      -0.000364
                                                         0.285714       0.186009
                                                         0.878497      -0.044751
                                                         3.780456       1.815169
                          1       5    3dyz              0.112012      -0.000630
                                                         0.285714       0.322177
                                                         0.878497      -0.077512
                                                         3.780456       3.143965
                          1       5    3dz2              0.112012      -0.000364
                                                         0.285714       0.186009
                                                         0.878497      -0.044751
                                                         3.780456       1.815169

                          2       1    1s         

     AE Potential information for                                            ALL

       Description:                                       All-electron potential
                                          Krack, Parrinello, PCCP 2, 2105 (2000)

       Gaussian exponent of the core charge distribution:               5.979100
       Electronic configuration (s p d ...):                           4   3   0

  4. Atomic kind: O                                     Number of atoms:       3

     Orbital Basis Set                                      aug-SZV-MOLOPT-ae-SR

       Number of orbital shell sets:                                           2
       Number of orbital shells:                                               6
       Number of primitive Cartesian functions:                                7
       Number of Cartesian basis functions:                                   15
       Number of spherical basis functions:                                   14
       Norm type:                                                              2

       Normalised Cartesian orbitals:

                        Set   Shell   Orbital            Exponent    Coefficient

                          1       1    1s                0.162492       0.000000
                                                         0.380389       0.241686
                                                         1.169596       0.320234
                                                         5.033151      -0.239413

                          1       2    2s                0.162492       0.120425
                                                         0.380389       0.131001
                                                         1.169596      -0.000041
                                                         5.033151      -0.089217

                          1       3    2px               0.162492       0.000000
                                                         0.380389       0.166903
                                                         1.169596       1.053568
                                                         5.033151       1.675450
                          1       3    2py               0.162492       0.000000
                                                         0.380389       0.166903
                                                         1.169596       1.053568
                                                         5.033151       1.675450
                          1       3    2pz               0.162492       0.000000
                                                         0.380389       0.166903
                                                         1.169596       1.053568
                                                         5.033151       1.675450

                          1       4    3px               0.162492       0.001278
                                                         0.380389       0.422682
                                                         1.169596       0.000775
                                                         5.033151       0.003884
                          1       4    3py               0.162492       0.001278
                                                         0.380389       0.422682
                                                         1.169596       0.000775
                                                         5.033151       0.003884
                          1       4    3pz               0.162492       0.001278
                                                         0.380389       0.422682
                                                         1.169596       0.000775
                                                         5.033151       0.003884

                          1       5    3dx2              0.162492      -0.037898
                                                         0.380389       0.380180
                                                         1.169596       0.208664
                                                         5.033151       1.207157
                          1       5    3dxy              0.162492      -0.065641
                                                         0.380389       0.658491
                                                         1.169596       0.361417
                                                         5.033151       2.090858
                          1       5    3dxz              0.162492      -0.065641
                                                         0.380389       0.658491
                                                         1.169596       0.361417
                                                         5.033151       2.090858
                          1       5    3dy2              0.162492      -0.037898
                                                         0.380389       0.380180
                                                         1.169596       0.208664
                                                         5.033151       1.207157
                          1       5    3dyz              0.162492      -0.065641
                                                         0.380389       0.658491
                                                         1.169596       0.361417
                                                         5.033151       2.090858
                          1       5    3dz2              0.162492      -0.037898
                                                         0.380389       0.380180
                                                         1.169596       0.208664
                                                         5.033151       1.207157

                          2       1    1s              130.709321       4.251943
                                                        23.808866       4.112294
                                                         6.443608       1.281623

     RI Auxiliary Basis Set             RI_aug-SZV-MOLOPT-ae-SR_N_RI_094_s_p_d_f

       Number of orbital shell sets:                                          24
       Number of orbital shells:                                              24
       Number of primitive Cartesian functions:                               24
       Number of Cartesian basis functions:                                  121
       Number of spherical basis functions:                                   94
       Norm type:                                                              2

       Normalised Cartesian orbitals:

                        Set   Shell   Orbital            Exponent    Coefficient

                          1       1   14dx2              0.302855       0.203503
                          1       1   14dxy              0.302855       0.352477
                          1       1   14dxz              0.302855       0.352477
                          1       1   14dy2              0.302855       0.203503
                          1       1   14dyz              0.302855       0.352477
                          1       1   14dz2              0.302855       0.203503

                          2       1    1s                0.351583       0.325410

                          3       1   15dx2              0.572744       0.620641
                          3       1   15dxy              0.572744       1.074983
                          3       1   15dxz              0.572744       1.074983
                          3       1   15dy2              0.572744       0.620641
                          3       1   15dyz              0.572744       1.074983
                          3       1   15dz2              0.572744       0.620641

                          4       1    8px               0.604446       0.759690
                          4       1    8py               0.604446       0.759690
                          4       1    8pz               0.604446       0.759690

                          5       1    2s                0.644875       0.512881

                          6       1    9px               0.823718       1.118571
                          6       1    9py               0.823718       1.118571
                          6       1    9pz               0.823718       1.118571

                          7       1   23gx4              0.975015       1.038045
                          7       1   23gx3y             0.975015       2.746409
                          7       1   23gx3z             0.975015       2.746409
                          7       1   23gx2y2            0.975015       3.545599
                          7       1   23gx2yz            0.975015       6.141158
                          7       1   23gx2z2            0.975015       3.545599
                          7       1   23gxy3             0.975015       2.746409
                          7       1   23gxy2z            0.975015       6.141158
                          7       1   23gxyz2            0.975015       6.141158
                          7       1   23gxz3             0.975015       2.746409
                          7       1   23gy4              0.975015       1.038045
                          7       1   23gy3z             0.975015       2.746409
                          7       1   23gy2z2            0.975015       3.545599
                          7       1   23gyz3             0.975015       2.746409
                          7       1   23gz4              0.975015       1.038045

                          8       1   20fx3              1.042512       1.616728
                          8       1   20fx2y             1.042512       3.615113
                          8       1   20fx2z             1.042512       3.615113
                          8       1   20fxy2             1.042512       3.615113
                          8       1   20fxyz             1.042512       6.261560
                          8       1   20fxz2             1.042512       3.615113
                          8       1   20fy3              1.042512       1.616728
                          8       1   20fy2z             1.042512       3.615113
                          8       1   20fyz2             1.042512       3.615113
                          8       1   20fz3              1.042512       1.616728

                          9       1   16dx2              1.084348       1.896507
                          9       1   16dxy              1.084348       3.284847
                          9       1   16dxz              1.084348       3.284847
                          9       1   16dy2              1.084348       1.896507
                          9       1   16dyz              1.084348       3.284847
                          9       1   16dz2              1.084348       1.896507

                         10       1    3s                1.789865       1.102872

                         11       1   17dx2              2.049940       5.780383
                         11       1   17dxy              2.049940      10.011917
                         11       1   17dxz              2.049940      10.011917
                         11       1   17dy2              2.049940       5.780383
                         11       1   17dyz              2.049940      10.011917
                         11       1   17dz2              2.049940       5.780383

                         12       1   10px               2.080883       3.562458
                         12       1   10py               2.080883       3.562458
                         12       1   10pz               2.080883       3.562458

                         13       1   21fx3              2.267771       9.290791
                         13       1   21fx2y             2.267771      20.774841
                         13       1   21fx2z             2.267771      20.774841
                         13       1   21fxy2             2.267771      20.774841
                         13       1   21fxyz             2.267771      35.983079
                         13       1   21fxz2             2.267771      20.774841
                         13       1   21fy3              2.267771       9.290791
                         13       1   21fy2z             2.267771      20.774841
                         13       1   21fyz2             2.267771      20.774841
                         13       1   21fz3              2.267771       9.290791

                         14       1   24gx4              2.269901      10.603631
                         14       1   24gx3y             2.269901      28.054571
                         14       1   24gx3z             2.269901      28.054571
                         14       1   24gx2y2            2.269901      36.218295
                         14       1   24gx2yz            2.269901      62.731928
                         14       1   24gx2z2            2.269901      36.218295
                         14       1   24gxy3             2.269901      28.054571
                         14       1   24gxy2z            2.269901      62.731928
                         14       1   24gxyz2            2.269901      62.731928
                         14       1   24gxz3             2.269901      28.054571
                         14       1   24gy4              2.269901      10.603631
                         14       1   24gy3z             2.269901      28.054571
                         14       1   24gy2z2            2.269901      36.218295
                         14       1   24gyz3             2.269901      28.054571
                         14       1   24gz4              2.269901      10.603631

                         15       1   18dx2              3.875832      17.621715
                         15       1   18dxy              3.875832      30.521706
                         15       1   18dxz              3.875832      30.521706
                         15       1   18dy2              3.875832      17.621715
                         15       1   18dyz              3.875832      30.521706
                         15       1   18dz2              3.875832      17.621715

                         16       1   22fx3              4.795051      50.088644
                         16       1   22fx2y             4.795051     112.001612
                         16       1   22fx2z             4.795051     112.001612
                         16       1   22fxy2             4.795051     112.001612
                         16       1   22fxyz             4.795051     193.992483
                         16       1   22fxz2             4.795051     112.001612
                         16       1   22fy3              4.795051      50.088644
                         16       1   22fy2z             4.795051     112.001612
                         16       1   22fyz2             4.795051     112.001612
                         16       1   22fz3              4.795051      50.088644

[...]
 Ab initio molecular dynamics using hybrid density functionals.
 https://doi.org/10.1063/1.2931945

 L. Genovese, T. Deutsch, S. Goedecker.
 J. Chem. Phys. 127, 054704 (2007).
 Efficient and accurate three-dimensional Poisson solver for surface problems.
 https://doi.org/10.1063/1.2754685

 J. VandeVondele, J. Hutter.
 J. Chem. Phys. 127, 114105 (2007).
 Gaussian basis sets for accurate calculations on molecular systems in gas and 
 condensed phases.
 https://doi.org/10.1063/1.2770708

 L. Genovese, T. Deutsch, A. Neelov, S. Goedecker, G. Beylkin.
 J. Chem. Phys. 125, 074105 (2006).
 Efficient solution of Poisson's equation with free boundary conditions.
 https://doi.org/10.1063/1.2335442

 M. Iannuzzi, T. Chassaing, T. Wallman, J. Hutter.
 CHIMIA 59, 499-503 (2005).
 Ground and excited state density functional calculations with the Gaussian and 
 augmented-plane-wave method.
 https://doi.org/10.2533/000942905777676164

 M. Frigo, S. G. Johnson.
 Proc. IEEE 93, 216-231 (2005).
 The design and implementation of FFTW3.
 https://doi.org/10.1109/JPROC.2004.840301

 R. L. Martin.
 J. Chem. Phys. 118, 4775-4777 (2003).
 Natural transition orbitals.
 https://doi.org/10.1063/1.1558471

 M. Krack, M. Parrinello.
 Phys. Chem. Chem. Phys. 2, 2105-2112 (2000).
 All-electron ab-initio molecular dynamics.
 https://doi.org/10.1039/b001167n

 G. Lippert, J. Hutter, M. Parrinello.
 Theor. Chem. Acc. 103, 124-140 (1999).
 The Gaussian and augmented-plane-wave density functional method for ab initio 
 molecular dynamics simulations.
 https://doi.org/10.1007/s002140050523

 J. P. Perdew, K. Burke, M. Ernzerhof.
 Phys. Rev. Lett. 77, 3865-3868 (1996).
 Generalized gradient approximation made simple.
 https://doi.org/10.1103/PhysRevLett.77.3865


 -------------------------------------------------------------------------------
 -                                                                             -
 -                                T I M I N G                                  -
 -                                                                             -
 -------------------------------------------------------------------------------
 SUBROUTINE                       CALLS  ASD         SELF TIME        TOTAL TIME
                                MAXIMUM       AVERAGE  MAXIMUM  AVERAGE  MAXIMUM
 CP2K                                 1  1.0    0.039    0.079  832.111  832.120
 qs_energies                          1  2.0    0.000    0.000  831.385  831.394
 qs_energies_properties               1  3.0    0.000    0.000  605.477  605.484
 tddfpt                               1  4.0    0.000    0.000  605.477  605.484
 tddfpt_energies                      1  5.0    0.000    0.000  605.273  605.280
 tddfpt_davidson_solver               1  6.0    0.001    0.001  600.039  600.046
 tddfpt_compute_Aop_evects           11  7.0    0.000    0.000  581.882  581.887
 fhxc_kernel                         11  8.0    0.007    0.008  532.084  532.090
 fft_wrap_pw1pw2                   5969 11.1    0.073    0.087  483.693  486.934
 fft3d_ps                          5969 13.1   19.585   22.110  470.911  474.656
 fft_wrap_pw1pw2_250               4199 12.2    2.813    2.961  464.144  468.609
 mp_alltoall_z22v                  5969 15.1  446.020  450.452  446.020  450.452
 x_to_yz                           3018 13.8    2.868    3.467  228.893  231.043
 yz_to_x                           2951 14.4    2.235    2.663  222.229  224.409
 scf_env_do_scf                       1  3.0    0.000    0.000  224.061  224.063
 scf_env_do_scf_inner_loop           74  4.0    0.001    0.004  224.061  224.063
 xc_pw_derive                      1767 11.0    0.009    0.010  196.984  197.368
 pw_poisson_solve                   294  9.5    1.150    1.606  185.749  186.381
 tddfpt_apply_coulomb               220  9.0    0.003    0.003  168.705  169.264
 qs_ks_update_qs_env                 74  5.0    0.000    0.001  167.679  167.699
 rebuild_ks_matrix                   74  6.0    0.000    0.000  167.639  167.662
 qs_ks_build_kohn_sham_matrix        74  7.0    0.010    0.011  167.639  167.662
 tddfpt_apply_xc_analytic           220  9.0    0.226    0.250  165.186  165.354
 qs_rho_update_rho_low              296  8.0    0.003    0.004  132.162  132.241
 calculate_rho_elec                 296  9.0    0.918    1.087  130.854  130.952
 xc_pw_divergence                   294 10.7    0.005    0.006  129.695  130.114
 density_rs2pw                      296 10.0    0.008    0.011  104.899  107.080
 xc_calc_2nd_deriv_analytical      1100 10.2    1.125    1.406   94.162   94.201
 ps_wavelet_solve                   294 10.5   36.582   42.450   79.380   81.094
 integrate_v_rspace                 294  9.0    0.007    0.009   78.078   78.134
 potential_pw2rs                    294 10.0    0.043    0.045   75.441   75.912
 qs_vxc_create                       74  8.0    0.001    0.001   67.615   67.616
 xc_vxc_pw_create                    74  9.0    0.293    0.348   67.614   67.616
 mp_alltoall_d11v                 19124 11.7   59.929   63.554   59.929   63.554
 mp_alltoall_d54                    294 11.5   19.698   50.885   19.698   50.885
 cp_dbcsr_sm_fm_multiply           1366  8.6    0.015    0.019   46.124   46.304
 prepare_gapw_den                   295  8.7    0.004    0.004   42.775   43.452
 tddfpt_apply_hfx                    11  8.0    0.002    0.003   42.921   42.922
 put_rho0_on_grid                   295  9.7    0.935    1.134   41.560   42.224
 dbcsr_complete_redistribute       4519 10.5    0.105    0.176   41.525   41.854
 transfer_pw2rs                    1471 10.9    0.014    0.018   39.677   40.433
 transfer_rs2pw                    1481 10.9    0.023    0.030   36.247   38.298
 mp_waitany                       46072 12.9   30.628   37.843   30.628   37.843
 mp_waitall_1                    345470 13.6   19.012   32.316   19.012   32.316
 xc_rho_set_and_dset_create          75 10.0    0.196    0.206   30.133   30.983
 copy_dbcsr_to_fm                  1462  9.4    0.011    0.011   27.323   27.466
 copy_fm_to_dbcsr                  3055  9.6    0.007    0.008   26.376   26.698
 mp_alltoall_d45                    295 11.5   23.146   26.585   23.146   26.585
 grid_collocate_task_list           296 10.0   22.614   24.677   22.614   24.677
 integrate_four_center              514  9.9   10.214   20.923   23.574   23.681
 mp_alltoall_i11v                 15020 11.5   23.581   23.589   23.581   23.589
 mp_sync                           2704 11.5   11.559   21.594   11.559   21.594
 sum_up_and_integrate                74  8.0    0.001    0.001   21.037   21.064
 tddft_hfx_matrix                   440  9.0    0.004    0.006   19.449   19.542
 cp2k_distribution_to_z_slices      294 10.5    1.134    1.279   18.851   19.196
 transfer_rs2pw_250                 593 11.8    3.376    3.806   14.238   16.387
 transfer_pw2rs_250                 589 11.7    3.360    3.861   14.772   16.306
 fft_wrap_pw1pw2_90                 590 12.0    0.091    0.097   13.812   14.855
 gspace_mixing                       73  5.0    0.226    0.268   14.611   14.619
 mp_sendrecv_dv                   46768 13.0   12.847   14.216   12.847   14.216
 transfer_rs2pw_30                  296 12.0    1.236    1.350   11.310   13.242
 dbcsr_desymmetrize_deep           1463 10.4    0.014    0.021   12.070   12.217
 transfer_pw2rs_30                  294 12.0    2.781    3.029   10.006   12.196
 tddfpt_orthonormalize_psi1_psi      12  6.9    0.015    0.016   10.743   10.746
 transfer_pw2rs_90                  294 12.0    0.640    0.819    8.339   10.381
 integrate_vhg0_rspace              294  9.5    0.091    0.138   10.142   10.194
 transfer_rs2pw_90                  296 12.0    0.701    0.851    7.598    8.879
 mp_sum_d                          4778  8.0    5.568    8.529    5.568    8.529
 transfer_pw2rs_10                  294 12.0    0.472    0.501    6.545    7.707
 cp_dbcsr_plus_fm_fm_t              294  8.5    0.002    0.003    7.139    7.302
 tddfpt_apply_energy_diff            11  8.0    0.001    0.001    6.876    6.877
 tddfpt_compute_residual_vects       10  7.0    0.000    0.001    6.806    6.811
 qs_scf_new_mos                      74  5.0    0.001    0.001    6.528    6.603
 hybrid_alltoall_any               5223 13.5    0.020    0.025    5.891    6.251
 dbcsr_multiply_generic            1880 10.4    0.045    0.050    5.565    5.776
 mp_sum_dv                        29137  9.0    5.268    5.471    5.268    5.471
 mp_sum_dm                         7203 10.1    3.444    4.900    3.444    4.900
 broyden_mixing                      73  6.0    4.575    4.639    4.733    4.755
 cp_fm_diag_elpa                    127  7.2    0.000    0.000    4.449    4.465
 cp_fm_diag_elpa_base               127  8.2    4.288    4.367    4.373    4.398
 transfer_rs2pw_10                  296 12.0    0.305    0.324    3.078    4.306
 cp_fm_trace_a1b1t1_aa            24520  8.0    0.050    0.060    4.193    4.217
 hfx_ks_matrix                       74  8.0    0.001    0.001    4.132    4.162
 pw_scatter_p                      3018 12.8    3.685    3.820    3.685    3.820
 pw_derive                         2649 11.8    3.514    3.732    3.514    3.732
 fft_wrap_pw1pw2_30                 590 12.0    0.017    0.019    3.288    3.543
 cp_dbcsr_sm_fm_multiply_core      1366  9.6    0.002    0.003    3.277    3.418
 eigensolver_symm                    74  6.0    0.005    0.006    3.317    3.356
 pw_gather_p                       2951 13.4    2.987    3.270    2.987    3.270
 tddfpt_print_nto_analysis            1  6.0    0.001    0.002    3.045    3.046
 rs_gather_matrices                 294 10.0    0.006    0.016    2.533    3.039
 mp_alltoall_i22                   5982 11.5    2.458    2.888    2.458    2.888
 pw_copy                           3975 11.0    2.760    2.880    2.760    2.880
 pw_integral_ab_c1d_c1d_gs          294 10.5    1.292    1.321    2.159    2.875
 parallel_gemm_fm                  1987  8.3    0.001    0.002    2.105    2.645
 parallel_gemm_fm_cosma            1987  9.3    2.103    2.644    2.103    2.644
 fft_wrap_pw1pw2_10                 590 12.0    0.005    0.006    2.377    2.410
 mp_cart_sub                       2926 11.4    2.351    2.355    2.351    2.355
 mp_sum_l                          7100 10.7    1.975    2.282    1.975    2.282
 multiply_cannon                   1880 11.4    0.095    0.106    1.769    2.279
 rs_grid_zero                      1474 11.9    2.137    2.266    2.137    2.266
 pw_poisson_set                     295 10.5    0.004    0.005    2.023    2.127
 pw_copy_to_array                  2951 13.4    1.712    2.124    1.712    2.124
 make_m2s                          3760 11.4    0.032    0.034    1.596    2.017
 make_images                       3760 12.4    0.085    0.091    1.497    1.915
 xc_functional_eval                1251 10.9    0.001    0.003    1.179    1.899
 pbe_lda_eval                      1251 11.9    1.178    1.897    1.178    1.897
 calculate_xc_2nd_deriv_atom        220  9.0    0.072    0.619    0.152    1.796
 update_ks_atom                     294  8.7    0.032    0.060    1.705    1.788
 mp_bcast_dm                       4704  9.7    1.673    1.752    1.673    1.752
 calculate_dm_sparse                 74  6.0    0.000    0.000    1.653    1.750
 Vh_1c_gg_integrals                 294  9.5    0.024    0.156    1.029    1.726
 pw_copy_from_array                3018 12.8    1.398    1.663    1.398    1.663
 mp_max_i                           767  5.5    0.961    1.646    0.961    1.646
 pw_axpy                           3242 10.8    1.473    1.558    1.473    1.558
 multiply_cannon_loop              1880 12.4    0.111    0.115    0.974    1.538
 cp_fm_geeig                         20  7.0    0.001    0.001    1.462    1.469
 make_images_sizes                 3760 13.4    0.003    0.003    1.182    1.450
 mp_alltoall_i44                   3760 14.4    1.180    1.448    1.180    1.448
 rs_scatter_matrices                296 10.0    0.002    0.004    1.360    1.439
 calculate_rho_atom_coeff           296  9.0    0.040    0.061    1.304    1.328
 gaVxcgb_GC                         588  9.7    0.065    1.304    0.065    1.304
 pw_zero                           3310 10.6    1.196    1.281    1.196    1.281
 mp_cart_create                    2349 10.8    1.006    1.247    1.007    1.249
 qs_energies_init_hamiltonians        1  3.0    0.000    0.000    1.185    1.185
 mp_isend_dv                     105514 13.8    0.438    1.124    0.438    1.124
 calculate_rho_atom                 885  9.7    0.397    1.024    0.397    1.024
 build_core_hamiltonian_matrix        1  4.0    0.000    0.000    1.022    1.022
 overlap_condnum                      1  5.0    0.000    0.000    1.021    1.021
 mp_allgather_i34                  1880 12.4    0.625    0.967    0.625    0.967
 arnoldi_conjugate_gradient           5  6.0    0.004    0.005    0.956    0.956
 grid_integrate_task_list           294 10.0    0.095    0.908    0.095    0.908
 multiply_cannon_metrocomm3       37600 13.4    0.051    0.052    0.449    0.873
 mp_isendrecv_dv                 127664 12.3    0.288    0.858    0.288    0.858
 tddfpt_compute_ritz_vects           11  7.0    0.003    0.004    0.750    0.751
 integrate_four_center_dist_KS      514 10.9    0.035    0.041    0.703    0.750
 tddfpt_construct_ground_state_       1  6.0    0.000    0.000    0.739    0.742
 integrate_four_center_getP         514 10.9    0.035    0.039    0.684    0.710
 dbcsr_sym_matrix_vector_mult      1315  7.0    0.009    0.010    0.468    0.606
 init_scf_run                         1  3.0    0.000    0.000    0.604    0.604
 pw_poisson_rebuild                 294 10.5    0.000    0.000    0.556    0.574
 ps_wavelet_create                    1 10.0    0.000    0.000    0.556    0.574
 RS_z_slice_distribution              1 11.0    0.249    0.348    0.556    0.574
 scf_env_initial_rho_setup            1  4.0    0.000    0.000    0.559    0.559
 prepare_dr1dr                     1100 11.2    0.488    0.553    0.488    0.553
 create_kernel_env                    1  6.0    0.000    0.000    0.534    0.549
 xc_prep_2nd_deriv                    1  7.0    0.000    0.000    0.534    0.549
 dbcsr_rep_row_to_rep_col_vec      1315  8.0    0.003    0.004    0.183    0.500
 calculate_vxc_atom                  74  8.0    0.027    0.118    0.492    0.494
 cp_fm_triangular_invert             20  8.0    0.488    0.493    0.488    0.493
 integrate_four_center_main         514 10.9    0.092    0.167    0.377    0.490
 multiply_cannon_metrocomm1       37600 13.4    0.013    0.014    0.208    0.488
 mp_isend_dm3                     10632 12.9    0.192    0.475    0.192    0.475
 make_images_data                  3760 13.4    0.020    0.029    0.115    0.377
 calc_screening_functions             1 10.0    0.137    0.141    0.353    0.369
 powell_optimize                 241536 11.0    0.347    0.364    0.347    0.364
 scale_and_distribute               588 11.5    0.261    0.355    0.261    0.355
 tddfpt_orthogonalize_psi1_psi0      12  6.9    0.000    0.000    0.327    0.339
 integrate_four_center_bin        63676 11.9    0.285    0.327    0.285    0.327
 dbcsr_col_vec_to_rep_row          1315  8.0    0.004    0.005    0.164    0.321
 cp_fm_cholesky_decompose            20  8.0    0.313    0.317    0.313    0.317
 multiply_cannon_metrocomm4       35720 13.4    0.055    0.063    0.115    0.273
 mp_maxloc_dv                      1235  1.0    0.246    0.254    0.246    0.254
 mp_max_d                           276  8.4    0.190    0.252    0.190    0.252
 create_qs_kind_set                   1  2.0    0.000    0.000    0.250    0.251
 read_qs_kind                         4  3.0    0.039    0.068    0.250    0.251
 dbcsr_finalize                   11269 11.4    0.046    0.057    0.207    0.245
 cp_fm_write_unformatted             44  7.5    0.233    0.235    0.234    0.235
 dbcsr_dot_sd                       514 10.9    0.001    0.002    0.136    0.229
 cp_fm_symm                          74  7.0    0.206    0.226    0.206    0.226
 calc_pair_dist_radii                 1 10.0    0.080    0.083    0.211    0.225
 mp_sum_b                          1028 10.7    0.191    0.215    0.191    0.215
 parser_read_line                 16670  4.0    0.003    0.003    0.211    0.213
 parser_read_line_low                29  5.0    0.003    0.147    0.209    0.210
 broadcast_input_information         29  6.0    0.005    0.005    0.206    0.209
 tddfpt_is_nonorthogonal_psi1_p      10  7.0    0.000    0.000    0.203    0.204
 qs_init_subsys                       1  2.0    0.001    0.001    0.193    0.194
 mp_bcast_i_src                     116  7.0    0.183    0.192    0.183    0.192
 qs_env_setup                         1  3.0    0.000    0.000    0.190    0.191
 qs_env_rebuild_pw_env                2  3.5    0.000    0.000    0.189    0.190
 pw_env_rebuild                       1  5.0    0.000    0.000    0.189    0.190
 mp_rank_compare                   5969 14.1    0.174    0.188    0.174    0.188
 tddfpt_write_restart                 2  6.5    0.000    0.033    0.182    0.184
 xc_2nd_deriv_of_r                  880 10.0    0.002    0.035    0.009    0.175
 pw_grid_setup                        4  6.0    0.000    0.000    0.174    0.175
 pw_grid_setup_internal               4  7.0    0.002    0.003    0.174    0.175
 qs_env_update_s_mstruct              1  4.0    0.000    0.000    0.162    0.162
 pw_scale                           736  9.5    0.129    0.161    0.129    0.161
 mp_bcast_dv                       1315  9.0    0.049    0.160    0.049    0.160
 mp_irecv_dv                     105412 13.8    0.059    0.157    0.059    0.157
 tddfpt_dipole_operator               1  5.0    0.000    0.000    0.156    0.157
 self_consistency_check              74  5.0    0.000    0.000    0.109    0.154
 cp_sm_mix                           74  6.0    0.000    0.000    0.109    0.154
 calculate_rho_core                   1  5.0    0.003    0.004    0.149    0.151
 mp_bcast_b_src                     201  8.0    0.063    0.143    0.063    0.143
 dbcsr_merge_all                   8873 12.5    0.084    0.098    0.119    0.134
 mp_bcast_av                        617  1.0    0.015    0.085    0.047    0.128
 dbcsr_create_new                 48436 12.0    0.084    0.091    0.117    0.127
 cp_fm_triangular_multiply           60  8.0    0.117    0.122    0.117    0.122
 pw_grid_sort                         4  8.0    0.082    0.084    0.111    0.115
 mp_bcast_i                         618  2.0    0.032    0.114    0.032    0.114
 cp_fm_maxabsval                    200  8.0    0.000    0.000    0.081    0.113
 cp_fm_uplo_to_full                 128  9.2    0.064    0.111    0.064    0.111
 cp_fm_redistribute_start           127  8.2    0.000    0.000    0.076    0.105
 mp_sum_iv                          460  7.1    0.091    0.097    0.091    0.097
 calculate_rho0_atom               1180  9.7    0.084    0.086    0.084    0.086
 mp_irecv_dm3                     10632 12.9    0.028    0.085    0.028    0.085
 offload_free_buffer                302 10.3    0.055    0.085    0.055    0.085
 -------------------------------------------------------------------------------

 The number of warnings for this run is : 1
 
 -------------------------------------------------------------------------------
  **** **** ******  **  PROGRAM ENDED AT                 2025-06-04 16:27:15.548
 ***** ** ***  *** **   PROGRAM RAN ON                                  n2cn0202
 **    ****   ******    PROGRAM RAN BY                                  metdyn02
 ***** **    ** ** **   PROGRAM PROCESS ID                               2418473
  **** **  *******  **  PROGRAM STOPPED IN /scratch/hpc-prf-metdyn/metdyn02_Remi
                                           /10_MOL/05_MOL/aUKBqsEOTmq69kFe5R_nOg
                                           /5k_set_final_qzvp/QARVOV/SZVSR/TDDFT
                                           /RILIM
