 DBCSR| CPU Multiplication driver                                           XSMM (U)
 DBCSR| Multrec recursion limit                                              512 (U)
 DBCSR| Multiplication stack size                                           1000 (D)
 DBCSR| Maximum elements for images                                    UNLIMITED (U)
 DBCSR| Multiplicative factor virtual images                                   1 (U)
 DBCSR| Use multiplication densification                                       T (D)
 DBCSR| Multiplication size stacks                                             3 (U)
 DBCSR| Use memory pool for CPU allocation                                     F (U)
 DBCSR| Number of 3D layers                                               SINGLE (U)
 DBCSR| Use MPI memory allocation                                              F (U)
 DBCSR| Use RMA algorithm                                                      F (U)
 DBCSR| Use Communication thread                                               T (U)
 DBCSR| Communication thread load                                             60 (D)
 DBCSR| MPI: My process id                                                     0
 DBCSR| MPI: Number of processes                                              80
 DBCSR| OMP: Current number of threads                                         8
 DBCSR| OMP: Max number of threads                                             8
 DBCSR| Split modifier for TAS multiplication algorithm                  1.0E+00 (U)


  **** **** ******  **  PROGRAM STARTED AT               2025-06-04 00:53:24.735
 ***** ** ***  *** **   PROGRAM STARTED ON                              n2cn0257
 **    ****   ******    PROGRAM STARTED BY                              metdyn02
 ***** **    ** ** **   PROGRAM PROCESS ID                               1887648
  **** **  *******  **  PROGRAM STARTED IN /scratch/hpc-prf-metdyn/metdyn02_Remi
                                           /10_MOL/05_MOL/aUKBqsEOTmq69kFe5R_nOg
                                           /5k_set_final_qzvp/HORZEU/SZVSR/GW+BS
                                           E/RILIM

 CP2K| version string:                 CP2K version 2025.1 (Development Version)
 CP2K| source code revision number:                                  git:32ddf85
 CP2K| cp2kflags: omp libint fftw3 libxc libgrpp elpa parallel scalapack mpi_f08
 CP2K|             cosma xsmm plumed2 spglib libvori libbqb libvdwxc hdf5
 CP2K| is freely available from                            https://www.cp2k.org/
 CP2K| Program compiled at                         Mon May 19 11:32:37 CEST 2025
 CP2K| Program compiled on                                              n2login1
 CP2K| Program compiled for                                                local
 CP2K| Data directory path    /opt/software/pc2/EB-SW/software/CP2K/2024.1-foss-
 CP2K| Input file name                                                    GW.inp

 GLOBAL| Force Environment number                                              1
 GLOBAL| Basis set file name            /scratch/hpc-prf-metdyn/metdyn02_Remi/BA
 GLOBAL| Potential file name            /pc2/groups/hpc-prf-metdyn/metdyn02_Remi
 GLOBAL| MM Potential file name                                     MM_POTENTIAL
 GLOBAL| Coordinate file name                                      __STD_INPUT__
 GLOBAL| Method name                                                        CP2K
 GLOBAL| Project name                                                       MoS2
 GLOBAL| Run type                                                         ENERGY
 GLOBAL| FFT library                                                       FFTW3
 GLOBAL| Diagonalization library                                            ELPA
 GLOBAL| Cholesky decomposition library                                ScaLAPACK
 GLOBAL| DGEMM library                                                      BLAS
 GLOBAL| Minimum number of eigenvectors for ELPA usage                        16
 GLOBAL| Orthonormality check for eigenvectors                          DISABLED
 GLOBAL| Matrix multiplication library                                     COSMA
 GLOBAL| All-to-all communication in single precision                          F
 GLOBAL| FFTs using library dependent lengths                                  F
 GLOBAL| Grid backend                                                       AUTO
 GLOBAL| Global print level                                               MEDIUM
 GLOBAL| MPI I/O enabled                                                       T
 GLOBAL| Total number of message passing processes                            80
 GLOBAL| Number of threads for this process                                    8
 GLOBAL| This output is from process                                           0
 GLOBAL| OpenMP stack size per thread (OMP_STACKSIZE)                    default
 GLOBAL| CPU model name                          AMD EPYC 7763 64-Core Processor
 GLOBAL| CPUID                                                              1002

 MEMORY| system memory details [Kb]
 MEMORY|                        rank 0           min           max       average
 MEMORY| MemTotal            263897616     263897548     263897624     263897590
 MEMORY| MemFree             245926836     245819148     252499404     248552996
 MEMORY| Buffers                 31200         25032        101568         52151
 MEMORY| Cached               12663212       6864264      12926716      10236853
 MEMORY| Slab                  2129232       1385996       2129232       1753637
 MEMORY| SReclaimable           803672        248344        803672        360253
 MEMORY| MemLikelyFree       259424920     258886780     259728316     259202255


 *** Fundamental physical constants (SI units) ***

 *** Literature: B. J. Mohr and B. N. Taylor,
 ***             CODATA recommended values of the fundamental physical
 ***             constants: 2006, Web Version 5.1
 ***             http://physics.nist.gov/constants

 Speed of light in vacuum [m/s]                             2.99792458000000E+08
 Magnetic constant or permeability of vacuum [N/A**2]       1.25663706143592E-06
 Electric constant or permittivity of vacuum [F/m]          8.85418781762039E-12
 Planck constant (h) [J*s]                                  6.62606896000000E-34
 Planck constant (h-bar) [J*s]                              1.05457162825177E-34
 Elementary charge [C]                                      1.60217648700000E-19
 Electron mass [kg]                                         9.10938215000000E-31
 Electron g factor [ ]                                     -2.00231930436220E+00
 Proton mass [kg]                                           1.67262163700000E-27
 Fine-structure constant                                    7.29735253760000E-03
 Rydberg constant [1/m]                                     1.09737315685270E+07
 Avogadro constant [1/mol]                                  6.02214179000000E+23
 Boltzmann constant [J/K]                                   1.38065040000000E-23
 Atomic mass unit [kg]                                      1.66053878200000E-27
 Bohr radius [m]                                            5.29177208590000E-11

 *** Conversion factors ***

 [u] -> [a.u.]                                              1.82288848426455E+03
 [Angstrom] -> [Bohr] = [a.u.]                              1.88972613288564E+00
 [a.u.] = [Bohr] -> [Angstrom]                              5.29177208590000E-01
 [a.u.] -> [s]                                              2.41888432650478E-17
 [a.u.] -> [fs]                                             2.41888432650478E-02
 [a.u.] -> [J]                                              4.35974393937059E-18
 [a.u.] -> [N]                                              8.23872205491840E-08
 [a.u.] -> [K]                                              3.15774647902944E+05
 [a.u.] -> [kJ/mol]                                         2.62549961709828E+03
 [a.u.] -> [kcal/mol]                                       6.27509468713739E+02
 [a.u.] -> [Pa]                                             2.94210107994716E+13
 [a.u.] -> [bar]                                            2.94210107994716E+08
 [a.u.] -> [atm]                                            2.90362800883016E+08
 [a.u.] -> [eV]                                             2.72113838565563E+01
 [a.u.] -> [Hz]                                             6.57968392072181E+15
 [a.u.] -> [1/cm] (wave numbers)                            2.19474631370540E+05
 [a.u./Bohr**2] -> [1/cm]                                   5.14048714338585E+03
 

 CELL_TOP| Volume [angstrom^3]:                                     27000.000000
 CELL_TOP| Vector a [angstrom    30.000     0.000     0.000   |a| =    30.000000
 CELL_TOP| Vector b [angstrom     0.000    30.000     0.000   |b| =    30.000000
 CELL_TOP| Vector c [angstrom     0.000     0.000    30.000   |c| =    30.000000
 CELL_TOP| Angle (b,c), alpha [degree]:                                90.000000
 CELL_TOP| Angle (a,c), beta  [degree]:                                90.000000
 CELL_TOP| Angle (a,b), gamma [degree]:                                90.000000
 CELL_TOP| Numerically orthorhombic:                                         YES
 CELL_TOP| Periodicity                                                      NONE

 GENERATE|  Preliminary Number of Bonds generated:                             0
 GENERATE|  Achieved consistency in connectivity generation.

 CELL| Volume [angstrom^3]:                                         27000.000000
 CELL| Vector a [angstrom]:      30.000     0.000     0.000   |a| =    30.000000
 CELL| Vector b [angstrom]:       0.000    30.000     0.000   |b| =    30.000000
 CELL| Vector c [angstrom]:       0.000     0.000    30.000   |c| =    30.000000
 CELL| Angle (b,c), alpha [degree]:                                    90.000000
 CELL| Angle (a,c), beta  [degree]:                                    90.000000
 CELL| Angle (a,b), gamma [degree]:                                    90.000000
 CELL| Numerically orthorhombic:                                             YES
 CELL| Periodicity                                                          NONE

 CELL_REF| Volume [angstrom^3]:                                     27000.000000
 CELL_REF| Vector a [angstrom    30.000     0.000     0.000   |a| =    30.000000
 CELL_REF| Vector b [angstrom     0.000    30.000     0.000   |b| =    30.000000
 CELL_REF| Vector c [angstrom     0.000     0.000    30.000   |c| =    30.000000
 CELL_REF| Angle (b,c), alpha [degree]:                                90.000000
 CELL_REF| Angle (a,c), beta  [degree]:                                90.000000
 CELL_REF| Angle (a,b), gamma [degree]:                                90.000000
 CELL_REF| Numerically orthorhombic:                                         YES
 CELL_REF| Periodicity                                                      NONE

 *******************************************************************************
 *******************************************************************************
 **                                                                           **
 **     #####                         ##              ##                      **
 **    ##   ##            ##          ##              ##                      **
 **   ##     ##                       ##            ######                    **
 **   ##     ##  ##   ##  ##   #####  ##  ##   ####   ##    #####    #####    **
 **   ##     ##  ##   ##  ##  ##      ## ##   ##      ##   ##   ##  ##   ##   **
 **   ##  ## ##  ##   ##  ##  ##      ####     ###    ##   ######   ######    **
 **    ##  ###   ##   ##  ##  ##      ## ##      ##   ##   ##       ##        **
 **     #######   #####   ##   #####  ##  ##  ####    ##    #####   ##        **
 **           ##                                                    ##        **
 **                                                                           **
 **                                                ... make the atoms dance   **
 **                                                                           **
 **            Copyright (C) by CP2K developers group (2000-2025)             **
 **                      J. Chem. Phys. 152, 194103 (2020)                    **
 **                                                                           **
 *******************************************************************************

 DFT| Spin restricted Kohn-Sham (RKS) calculation                            RKS
 DFT| Multiplicity                                                             1
 DFT| Number of spin states                                                    1
 DFT| Charge                                                                   0
 DFT| Self-interaction correction (SIC)                                       NO
 DFT| Cutoffs: density                                              1.000000E-10
 DFT|          gradient                                             1.000000E-10
 DFT|          tau                                                  1.000000E-10
 DFT|          cutoff_smoothing_range                               0.000000E+00
 DFT| XC density smoothing                                                  NONE
 DFT| XC derivatives                                                          PW

 FUNCTIONAL| PBE:
 FUNCTIONAL| J.P.Perdew, K.Burke, M.Ernzerhof, Phys. Rev. Letter, vol. 77, n 18,
 FUNCTIONAL|  pp. 3865-3868, (1996)sx=0.750sc=1.000{spin unpolarized}           


 QS| Method:                                                                GAPW
 QS| Density plane wave grid type                        NON-SPHERICAL FULLSPACE
 QS| Number of grid levels:                                                    4
 QS| Density cutoff [a.u.]:                                                250.0
 QS| Multi grid cutoff [a.u.]: 1) grid level                               250.0
 QS|                           2) grid level                                83.3
 QS|                           3) grid level                                27.8
 QS|                           4) grid level                                 9.3
 QS| Grid level progression factor:                                          3.0
 QS| Relative density cutoff [a.u.]:                                        50.0
 QS| Interaction thresholds: eps_pgf_orb:                                1.0E-12
 QS|                         eps_filter_matrix:                          0.0E+00
 QS|                         eps_core_charge:                            1.0E-14
 QS|                         eps_rho_gspace:                             1.0E-12
 QS|                         eps_rho_rspace:                             1.0E-12
 QS|                         eps_gvg_rspace:                             1.0E-06
 QS|                         eps_ppl:                                    1.0E-02
 QS|                         eps_ppnl:                                   1.0E-08
 QS| GAPW|      One center basis from orbital basis primitives
 QS| GAPW|                   eps_fit:                                    1.0E-04
 QS| GAPW|                   eps_iso:                                    1.0E-12
 QS| GAPW|                   eps_svd:                                    1.0E-08
 QS| GAPW|                   eps_cpc:                                    1.0E-12
 QS| GAPW|   atom-r-grid: quadrature:                                     GC_LOG
 QS| GAPW|      atom-s-grid:  max l :                                          4
 QS| GAPW|      max_l_rho0 :                                                   2
 QS| GAPW|      At least one kind is NOT PAW, i.e. it has only soft AO 
 QS| GAPW|      The NOT PAW atoms are treated fully GPW


 ATOMIC KIND INFORMATION

  1. Atomic kind: O                                     Number of atoms:       1

     Orbital Basis Set                                      aug-SZV-MOLOPT-ae-SR

       Number of orbital shell sets:                                           2
       Number of orbital shells:                                               6
       Number of primitive Cartesian functions:                                7
       Number of Cartesian basis functions:                                   15
       Number of spherical basis functions:                                   14
       Norm type:                                                              2

       Normalised Cartesian orbitals:

                        Set   Shell   Orbital            Exponent    Coefficient

                          1       1    1s                0.162492       0.000000
                                                         0.380389       0.241686
                                                         1.169596       0.320234
                                                         5.033151      -0.239413

                          1       2    2s                0.162492       0.120425
                                                         0.380389       0.131001
                                                         1.169596      -0.000041
                                                         5.033151      -0.089217

                          1       3    2px               0.162492       0.000000
                                                         0.380389       0.166903
                                                         1.169596       1.053568
                                                         5.033151       1.675450
                          1       3    2py               0.162492       0.000000
                                                         0.380389       0.166903
                                                         1.169596       1.053568
                                                         5.033151       1.675450
                          1       3    2pz               0.162492       0.000000
                                                         0.380389       0.166903
                                                         1.169596       1.053568
                                                         5.033151       1.675450

                          1       4    3px               0.162492       0.001278
                                                         0.380389       0.422682
                                                         1.169596       0.000775
                                                         5.033151       0.003884
                          1       4    3py               0.162492       0.001278
                                                         0.380389       0.422682
                                                         1.169596       0.000775
                                                         5.033151       0.003884
                          1       4    3pz               0.162492       0.001278
                                                         0.380389       0.422682
                                                         1.169596       0.000775
                                                         5.033151       0.003884

                          1       5    3dx2              0.162492      -0.037898
                                                         0.380389       0.380180
                                                         1.169596       0.208664
                                                         5.033151       1.207157
                          1       5    3dxy              0.162492      -0.065641
                                                         0.380389       0.658491
                                                         1.169596       0.361417
                                                         5.033151       2.090858
                          1       5    3dxz              0.162492      -0.065641
                                                         0.380389       0.658491
                                                         1.169596       0.361417
                                                         5.033151       2.090858
                          1       5    3dy2              0.162492      -0.037898
                                                         0.380389       0.380180
                                                         1.169596       0.208664
                                                         5.033151       1.207157
                          1       5    3dyz              0.162492      -0.065641
                                                         0.380389       0.658491
                                                         1.169596       0.361417
                                                         5.033151       2.090858
                          1       5    3dz2              0.162492      -0.037898
                                                         0.380389       0.380180
                                                         1.169596       0.208664
                                                         5.033151       1.207157

                          2       1    1s              130.709321       4.251943
                                                        23.808866       4.112294
                                                         6.443608       1.281623

     RI Auxiliary Basis Set             RI_aug-SZV-MOLOPT-ae-SR_N_RI_094_s_p_d_f

       Number of orbital shell sets:                                          24
       Number of orbital shells:                                              24
       Number of primitive Cartesian functions:                               24
       Number of Cartesian basis functions:                                  121
       Number of spherical basis functions:                                   94
       Norm type:                                                              2

       Normalised Cartesian orbitals:

                        Set   Shell   Orbital            Exponent    Coefficient

                          1       1   14dx2              0.302855       0.203503
                          1       1   14dxy              0.302855       0.352477
                          1       1   14dxz              0.302855       0.352477
                          1       1   14dy2              0.302855       0.203503
                          1       1   14dyz              0.302855       0.352477
                          1       1   14dz2              0.302855       0.203503

                          2       1    1s                0.351583       0.325410

                          3       1   15dx2              0.572744       0.620641
                          3       1   15dxy              0.572744       1.074983
                          3       1   15dxz              0.572744       1.074983
                          3       1   15dy2              0.572744       0.620641
                          3       1   15dyz              0.572744       1.074983
                          3       1   15dz2              0.572744       0.620641

                          4       1    8px               0.604446       0.759690
                          4       1    8py               0.604446       0.759690
                          4       1    8pz               0.604446       0.759690

                          5       1    2s                0.644875       0.512881

                          6       1    9px               0.823718       1.118571
                          6       1    9py               0.823718       1.118571
                          6       1    9pz               0.823718       1.118571

                          7       1   23gx4              0.975015       1.038045
                          7       1   23gx3y             0.975015       2.746409
                          7       1   23gx3z             0.975015       2.746409
                          7       1   23gx2y2            0.975015       3.545599
                          7       1   23gx2yz            0.975015       6.141158
                          7       1   23gx2z2            0.975015       3.545599
                          7       1   23gxy3             0.975015       2.746409
                          7       1   23gxy2z            0.975015       6.141158
                          7       1   23gxyz2            0.975015       6.141158
                          7       1   23gxz3             0.975015       2.746409
                          7       1   23gy4              0.975015       1.038045
                          7       1   23gy3z             0.975015       2.746409
                          7       1   23gy2z2            0.975015       3.545599
                          7       1   23gyz3             0.975015       2.746409
                          7       1   23gz4              0.975015       1.038045

                          8       1   20fx3              1.042512       1.616728
                          8       1   20fx2y             1.042512       3.615113
                          8       1   20fx2z             1.042512       3.615113
                          8       1   20fxy2             1.042512       3.615113
                          8       1   20fxyz             1.042512       6.261560
                          8       1   20fxz2             1.042512       3.615113
                          8       1   20fy3              1.042512       1.616728
                          8       1   20fy2z             1.042512       3.615113
                          8       1   20fyz2             1.042512       3.615113
                          8       1   20fz3              1.042512       1.616728

                          9       1   16dx2              1.084348       1.896507
                          9       1   16dxy              1.084348       3.284847
                          9       1   16dxz              1.084348       3.284847
                          9       1   16dy2              1.084348       1.896507
                          9       1   16dyz              1.084348       3.284847
                          9       1   16dz2              1.084348       1.896507

                         10       1    3s                1.789865       1.102872

                         11       1   17dx2              2.049940       5.780383
                         11       1   17dxy              2.049940      10.011917
                         11       1   17dxz              2.049940      10.011917
                         11       1   17dy2              2.049940       5.780383
                         11       1   17dyz              2.049940      10.011917
                         11       1   17dz2              2.049940       5.780383

                         12       1   10px               2.080883       3.562458
                         12       1   10py               2.080883       3.562458
                         12       1   10pz               2.080883       3.562458

                         13       1   21fx3              2.267771       9.290791
                         13       1   21fx2y             2.267771      20.774841
                         13       1   21fx2z             2.267771      20.774841
                         13       1   21fxy2             2.267771      20.774841
                         13       1   21fxyz             2.267771      35.983079
                         13       1   21fxz2             2.267771      20.774841
                         13       1   21fy3              2.267771       9.290791
                         13       1   21fy2z             2.267771      20.774841
                         13       1   21fyz2             2.267771      20.774841
                         13       1   21fz3              2.267771       9.290791

                         14       1   24gx4              2.269901      10.603631
                         14       1   24gx3y             2.269901      28.054571
                         14       1   24gx3z             2.269901      28.054571
                         14       1   24gx2y2            2.269901      36.218295
                         14       1   24gx2yz            2.269901      62.731928
                         14       1   24gx2z2            2.269901      36.218295
                         14       1   24gxy3             2.269901      28.054571
                         14       1   24gxy2z            2.269901      62.731928
                         14       1   24gxyz2            2.269901      62.731928
                         14       1   24gxz3             2.269901      28.054571
                         14       1   24gy4              2.269901      10.603631
                         14       1   24gy3z             2.269901      28.054571
                         14       1   24gy2z2            2.269901      36.218295
                         14       1   24gyz3             2.269901      28.054571
                         14       1   24gz4              2.269901      10.603631

                         15       1   18dx2              3.875832      17.621715
                         15       1   18dxy              3.875832      30.521706
                         15       1   18dxz              3.875832      30.521706
                         15       1   18dy2              3.875832      17.621715
                         15       1   18dyz              3.875832      30.521706
                         15       1   18dz2              3.875832      17.621715

                         16       1   22fx3              4.795051      50.088644
                         16       1   22fx2y             4.795051     112.001612
                         16       1   22fx2z             4.795051     112.001612
                         16       1   22fxy2             4.795051     112.001612
                         16       1   22fxyz             4.795051     193.992483
                         16       1   22fxz2             4.795051     112.001612
                         16       1   22fy3              4.795051      50.088644
                         16       1   22fy2z             4.795051     112.001612
                         16       1   22fyz2             4.795051     112.001612
                         16       1   22fz3              4.795051      50.088644

                         17       1   11px               5.513293      12.042148
                         17       1   11py               5.513293      12.042148
                         17       1   11pz               5.513293      12.042148

                         18       1    4s                6.240947       2.814155

                         19       1   19dx2              7.321398      53.635085
                         19       1   19dxy              7.321398      92.898692
                         19       1   19dxz              7.321398      92.898692
                         19       1   19dy2              7.321398      53.635085
                         19       1   19dyz              7.321398      92.898692
                         19       1   19dz2              7.321398      53.635085

                         20       1   12px              13.137317      35.651142
                         20       1   12py              13.137317      35.651142
                         20       1   12pz              13.137317      35.651142

                         21       1    5s               18.794911       6.433396

                         22       1   13px              31.295130     105.508159
                         22       1   13py              31.295130     105.508159
                         22       1   13pz              31.295130     105.508159

                         23       1    6s               55.276172      14.448194

                         24       1    7s              162.769315      32.478016

       Atomic covalent radius [Angstrom]:                                  0.730

       Atomic van der Waals radius [Angstrom]:                             1.520

     The atoms of this atomic kind are PAW atoms (GAPW):
       Hard Gaussian function radius:                                      1.512
       Rho0 radius:                                                        1.512
       Maximum GTO radius used for PAW projector construction:            24.566

     GAPW Soft Basis Set                               aug-SZV-MOLOPT-ae-SR_soft

       Number of orbital shell sets:                                           2
       Number of orbital shells:                                               6
       Number of primitive Cartesian functions:                                3
       Number of Cartesian basis functions:                                   15
       Number of spherical basis functions:                                   14
       Norm type:                                                              2

       Normalised Cartesian orbitals:

                        Set   Shell   Orbital            Exponent    Coefficient

                          1       1    1s                0.162492       0.000000
                                                         0.380389       0.241686
                                                         1.169596       0.320234

                          1       2    2s                0.162492       0.120425
                                                         0.380389       0.131001
                                                         1.169596      -0.000041

                          1       3    2px               0.162492       0.000000
                                                         0.380389       0.166903
                                                         1.169596       1.053568
                          1       3    2py               0.162492       0.000000
                                                         0.380389       0.166903
                                                         1.169596       1.053568
                          1       3    2pz               0.162492       0.000000
                                                         0.380389       0.166903
                                                         1.169596       1.053568

                          1       4    3px               0.162492       0.001278
                                                         0.380389       0.422682
                                                         1.169596       0.000775
                          1       4    3py               0.162492       0.001278
                                                         0.380389       0.422682
                                                         1.169596       0.000775
                          1       4    3pz               0.162492       0.001278
                                                         0.380389       0.422682
                                                         1.169596       0.000775

                          1       5    3dx2              0.162492      -0.037898
                                                         0.380389       0.380180
                                                         1.169596       0.208664
                          1       5    3dxy              0.162492      -0.065641
                                                         0.380389       0.658491
                                                         1.169596       0.361417
                          1       5    3dxz              0.162492      -0.065641
                                                         0.380389       0.658491
                                                         1.169596       0.361417
                          1       5    3dy2              0.162492      -0.037898
                                                         0.380389       0.380180
                                                         1.169596       0.208664
                          1       5    3dyz              0.162492      -0.065641
                                                         0.380389       0.658491
                                                         1.169596       0.361417
                          1       5    3dz2              0.162492      -0.037898
                                                         0.380389       0.380180
                                                         1.169596       0.208664

                          2       1    1s         

     AE Potential information for                                            ALL

       Description:                                       All-electron potential
                                          Krack, Parrinello, PCCP 2, 2105 (2000)

       Gaussian exponent of the core charge distribution:               8.154466
       Electronic configuration (s p d ...):                           4   4   0

  2. Atomic kind: H                                     Number of atoms:       9

     Orbital Basis Set                                      aug-SZV-MOLOPT-ae-SR

       Number of orbital shell sets:                                           1
       Number of orbital shells:                                               4
       Number of primitive Cartesian functions:                                4
       Number of Cartesian basis functions:                                    6
       Number of spherical basis functions:                                    6
       Norm type:                                                              2

       Normalised Cartesian orbitals:

                        Set   Shell   Orbital            Exponent    Coefficient

                          1       1    2s                0.065428       0.000000
                                                         0.168855       0.083474
                                                         0.623914       0.267839
                                                         3.425251       0.276934

                          1       2    3s                0.065428      -0.066952
                                                         0.168855       0.261968
                                                         0.623914       0.081548
                                                         3.425251      -0.022414

                          1       3    4s                0.065428       0.165615
                                                         0.168855      -0.226449
                                                         0.623914      -0.005802
                                                         3.425251       0.005451

                          1       4    3px               0.065428       0.053063
                                                         0.168855      -0.030502
                                                         0.623914       0.062721
                                                         3.425251       0.019012
                          1       4    3py               0.065428       0.053063
                                                         0.168855      -0.030502
                                                         0.623914       0.062721
                                                         3.425251       0.019012
                          1       4    3pz               0.065428       0.053063
                                                         0.168855      -0.030502
                                                         0.623914       0.062721
                                                         3.425251       0.019012

     RI Auxiliary Basis Set             RI_aug-SZV-MOLOPT-ae-SR_N_RI_035_s_p_d_f

       Number of orbital shell sets:                                          15
       Number of orbital shells:                                              15
       Number of primitive Cartesian functions:                               15
       Number of Cartesian basis functions:                                   37
       Number of spherical basis functions:                                   35
       Norm type:                                                              2

       Normalised Cartesian orbitals:

                        Set   Shell   Orbital            Exponent    Coefficient

                          1       1    1s                0.236911       0.242019

                          2       1    8px               0.347892       0.380843
                          2       1    8py               0.347892       0.380843
                          2       1    8pz               0.347892       0.380843

                          3       1    2s                0.423897       0.374417

                          4       1    9px               0.493166       0.589089
                          4       1    9py               0.493166       0.589089
                          4       1    9pz               0.493166       0.589089

                          5       1   14dx2              0.625366       0.723843
                          5       1   14dxy              0.625366       1.253733
                          5       1   14dxz              0.625366       1.253733
                          5       1   14dy2              0.625366       0.723843
                          5       1   14dyz              0.625366       1.253733
                          5       1   14dz2              0.625366       0.723843

                          6       1   10px               0.699103       0.911206
                          6       1   10py               0.699103       0.911206
                          6       1   10pz               0.699103       0.911206

                          7       1    3s                0.758464       0.579244

                          8       1   11px               0.991036       1.409457
                          8       1   11py               0.991036       1.409457
                          8       1   11pz               0.991036       1.409457

                          9       1   15dx2              1.286053       2.556305
                          9       1   15dxy              1.286053       4.427650
                          9       1   15dxz              1.286053       4.427650
                          9       1   15dy2              1.286053       2.556305
                          9       1   15dyz              1.286053       4.427650
                          9       1   15dz2              1.286053       2.556305

                         10       1    4s                1.357095       0.896123

                         11       1   12px               1.404875       2.180155
                         11       1   12py               1.404875       2.180155
                         11       1   12pz               1.404875       2.180155

                         12       1   13px               1.991527       3.372273
                         12       1   13py               1.991527       3.372273
                         12       1   13pz               1.991527       3.372273

                         13       1    5s                2.428204       1.386354

                         14       1    6s                4.344704       2.144768

                         15       1    7s                7.773833       3.318077

       Atomic covalent radius [Angstrom]:                                  0.320

       Atomic van der Waals radius [Angstrom]:                             1.090

     AE Potential information for                                            ALL

       Description:                                       All-electron potential
                                          Krack, Parrinello, PCCP 2, 2105 (2000)

       Gaussian exponent of the core charge distribution:              12.500000
       Electronic configuration (s p d ...):                           1   0   0

  3. Atomic kind: S                                     Number of atoms:       1

     Orbital Basis Set                                         aug-SZV-MOLOPT-ae

       Number of orbital shell sets:                                           3
       Number of orbital shells:                                               8
       Number of primitive Cartesian functions:                               19
       Number of Cartesian basis functions:                                   19
       Number of spherical basis functions:                                   18
       Norm type:                                                              2

       Normalised Cartesian orbitals:

                        Set   Shell   Orbital            Exponent    Coefficient

                          1       1    1s                0.072000       0.000000
                                                         0.148404       0.047043
                                                         0.287959       0.206056
                                                         0.581913       0.071732
                                                         1.300021      -0.154888
                                                         3.466625      -0.128563
                                                        12.944394      -0.038633

                          1       2    2s                0.072000       0.024465
                                                         0.148404       0.270123
                                                         0.287959      -0.286184
                                                         0.581913       0.001423
                                                         1.300021       0.046778
                                                         3.466625       0.000000
                                                        12.944394       0.000000

                          1       3    2px               0.072000       0.000000
                                                         0.148404       0.013902
                                                         0.287959       0.147021
                                                         0.581913       0.300295
                                                         1.300021       0.150808
                                                         3.466625      -0.123340
                                                        12.944394      -0.249863
                          1       3    2py               0.072000       0.000000
                                                         0.148404       0.013902
                                                         0.287959       0.147021
                                                         0.581913       0.300295
                                                         1.300021       0.150808
                                                         3.466625      -0.123340
                                                        12.944394      -0.249863
                          1       3    2pz               0.072000       0.000000
                                                         0.148404       0.013902
                                                         0.287959       0.147021
                                                         0.581913       0.300295
                                                         1.300021       0.150808
                                                         3.466625      -0.123340
                                                        12.944394      -0.249863

                          1       4    3px               0.072000      -0.066040
                                                         0.148404       0.050064
                                                         0.287959      -0.069730
                                                         0.581913       0.158592
                                                         1.300021      -0.055990
                                                         3.466625       0.000000
                                                        12.944394       0.000000
                          1       4    3py               0.072000      -0.066040
                                                         0.148404       0.050064
                                                         0.287959      -0.069730
                                                         0.581913       0.158592
                                                         1.300021      -0.055990
                                                         3.466625       0.000000
                                                        12.944394       0.000000
                          1       4    3pz               0.072000      -0.066040
                                                         0.148404       0.050064
                                                         0.287959      -0.069730
                                                         0.581913       0.158592
                                                         1.300021      -0.055990
                                                         3.466625       0.000000
                                                        12.944394       0.000000

                          1       5    3dx2              0.072000       0.001679
                                                         0.148404       0.023049
                                                         0.287959       0.065695
                                                         0.581913       0.132541
                                                         1.300021       0.392654
                                                         3.466625       0.000000
                                                        12.944394       0.000000
                          1       5    3dxy              0.072000       0.002907
                                                         0.148404       0.039921
                                                         0.287959       0.113787
                                                         0.581913       0.229567
                                                         1.300021       0.680096
                                                         3.466625       0.000000
                                                        12.944394       0.000000
                          1       5    3dxz              0.072000       0.002907
                                                         0.148404       0.039921
                                                         0.287959       0.113787
                                                         0.581913       0.229567
                                                         1.300021       0.680096
                                                         3.466625       0.000000
                                                        12.944394       0.000000
                          1       5    3dy2              0.072000       0.001679
                                                         0.148404       0.023049
                                                         0.287959       0.065695
                                                         0.581913       0.132541
                                                         1.300021       0.392654
                                                         3.466625       0.000000
                                                        12.944394       0.000000
                          1       5    3dyz              0.072000       0.002907
                                                         0.148404       0.039921
                                                         0.287959       0.113787
                                                         0.581913       0.229567
                                                         1.300021       0.680096
                                                         3.466625       0.000000
                                                        12.944394       0.000000
                          1       5    3dz2              0.072000       0.001679
                                                         0.148404       0.023049
                                                         0.287959       0.065695
                                                         0.581913       0.132541
                                                         1.300021       0.392654
                                                         3.466625       0.000000
                                                        12.944394       0.000000

                          2       1    1s              345.589679      -0.757073
                                                        68.401217      -0.796580
                                                        21.259047      -0.238395
                                                         8.179122       0.862581
                                                         3.552198       1.097452
                                                         1.628232       0.247277

                          2       2    2px             345.589679       7.985348
                                                        68.401217      10.565097
                                                        21.259047      11.315175
                                                         8.179122       8.242094
                                                         3.552198       2.960247
                                                         1.628232       0.266650
                          2       2    2py             345.589679       7.985348
                                                        68.401217      10.565097
                                                        21.259047      11.315175
                                                         8.179122       8.242094
                                                         3.552198       2.960247
                                                         1.628232       0.266650
                          2       2    2pz             345.589679       7.985348
                                                        68.401217      10.565097
                                                        21.259047      11.315175
                                                         8.179122       8.242094
                                                         3.552198       2.960247
                                                         1.628232       0.266650

                          3       1    1s             5529.038289       4.187581
                                                      1013.743118       6.320396
                                                       283.608793       8.301345
                                                        97.427275       8.189970
                                                        37.833862       4.528212
                                                        15.582074       0.728513

     RI Auxiliary Basis Set             RI_aug-SZV-MOLOPT-ae_N_RI_072_s_p_d_f_g_

       Number of orbital shell sets:                                          20
       Number of orbital shells:                                              20
       Number of primitive Cartesian functions:                               20
       Number of Cartesian basis functions:                                   93
       Number of spherical basis functions:                                   72
       Norm type:                                                              2

       Normalised Cartesian orbitals:

                        Set   Shell   Orbital            Exponent    Coefficient

                          1       1   19gx4              0.275952       0.032265
                          1       1   19gx3y             0.275952       0.085365
                          1       1   19gx3z             0.275952       0.085365
                          1       1   19gx2y2            0.275952       0.110205
                          1       1   19gx2yz            0.275952       0.190881
                          1       1   19gx2z2            0.275952       0.110205
                          1       1   19gxy3             0.275952       0.085365
                          1       1   19gxy2z            0.275952       0.190881
                          1       1   19gxyz2            0.275952       0.190881
                          1       1   19gxz3             0.275952       0.085365
                          1       1   19gy4              0.275952       0.032265
                          1       1   19gy3z             0.275952       0.085365
                          1       1   19gy2z2            0.275952       0.110205
                          1       1   19gyz3             0.275952       0.085365
                          1       1   19gz4              0.275952       0.032265

                          2       1    8px               0.294315       0.308998
                          2       1    8py               0.294315       0.308998
                          2       1    8pz               0.294315       0.308998

                          3       1    1s                0.341678       0.318510

                          4       1   14dx2              0.636998       0.747568
                          4       1   14dxy              0.636998       1.294827
                          4       1   14dxz              0.636998       1.294827
                          4       1   14dy2              0.636998       0.747568
                          4       1   14dyz              0.636998       1.294827
                          4       1   14dz2              0.636998       0.747568

                          5       1   17fx3              0.644663       0.548218
                          5       1   17fx2y             0.644663       1.225852
                          5       1   17fx2z             0.644663       1.225852
                          5       1   17fxy2             0.644663       1.225852
                          5       1   17fxyz             0.644663       2.123239
                          5       1   17fxz2             0.644663       1.225852
                          5       1   17fy3              0.644663       0.548218
                          5       1   17fy2z             0.644663       1.225852
                          5       1   17fyz2             0.644663       1.225852
                          5       1   17fz3              0.644663       0.548218

                          6       1    9px               0.688735       0.894345
                          6       1    9py               0.688735       0.894345
                          6       1    9pz               0.688735       0.894345

                          7       1    2s                1.050557       0.739562

                          8       1   20gx4              1.447489       3.077001
                          8       1   20gx3y             1.447489       8.140980
                          8       1   20gx3z             1.447489       8.140980
                          8       1   20gx2y2            1.447489      10.509960
                          8       1   20gx2yz            1.447489      18.203785
                          8       1   20gx2z2            1.447489      10.509960
                          8       1   20gxy3             1.447489       8.140980
                          8       1   20gxy2z            1.447489      18.203785
                          8       1   20gxyz2            1.447489      18.203785
                          8       1   20gxz3             1.447489       8.140980
                          8       1   20gy4              1.447489       3.077001
                          8       1   20gy3z             1.447489       8.140980
                          8       1   20gy2z2            1.447489      10.509960
                          8       1   20gyz3             1.447489       8.140980
                          8       1   20gz4              1.447489       3.077001

                          9       1   15dx2              1.719528       4.249869
                          9       1   15dxy              1.719528       7.360988
                          9       1   15dxz              1.719528       7.360988
                          9       1   15dy2              1.719528       4.249869
                          9       1   15dyz              1.719528       7.360988
                          9       1   15dz2              1.719528       4.249869

                         10       1   10px               2.690083       4.910742
                         10       1   10py               2.690083       4.910742
                         10       1   10pz               2.690083       4.910742

                         11       1    3s                3.398643       1.783977

                         12       1   18fx3              4.079789      34.824857
                         12       1   18fx2y             4.079789      77.870748
                         12       1   18fx2z             4.079789      77.870748
                         12       1   18fxy2             4.079789      77.870748
                         12       1   18fxyz             4.079789     134.876093
                         12       1   18fxz2             4.079789      77.870748
                         12       1   18fy3              4.079789      34.824857
                         12       1   18fy2z             4.079789      77.870748
                         12       1   18fyz2             4.079789      77.870748
                         12       1   18fz3              4.079789      34.824857

                         13       1   11px               9.102547      22.536879
                         13       1   11py               9.102547      22.536879
                         13       1   11pz               9.102547      22.536879

                         14       1    4s               10.929094       4.283988

                         15       1   16dx2             29.234258     604.951557
                         15       1   16dxy             29.234258    1047.806833
                         15       1   16dxz             29.234258    1047.806833
                         15       1   16dy2             29.234258     604.951557
                         15       1   16dyz             29.234258    1047.806833
                         15       1   16dz2             29.234258     604.951557

                         16       1   12px              30.338365     101.491646
                         16       1   12py              30.338365     101.491646
                         16       1   12pz              30.338365     101.491646

                         17       1    5s               34.879449      10.229097

                         18       1   13px             100.633172     454.324902
                         18       1   13py             100.633172     454.324902
                         18       1   13pz             100.633172     454.324902

                         19       1    6s              111.091943      24.387766

                         20       1    7s              353.642060      58.120993

       Atomic covalent radius [Angstrom]:                                  1.020

       Atomic van der Waals radius [Angstrom]:                             1.800

     The atoms of this atomic kind are PAW atoms (GAPW):
       Hard Gaussian function radius:                                      1.512
       Rho0 radius:                                                        1.512
       Maximum GTO radius used for PAW projector construction:            24.566

     GAPW Soft Basis Set                                  aug-SZV-MOLOPT-ae_soft

       Number of orbital shell sets:                                           3
       Number of orbital shells:                                               8
       Number of primitive Cartesian functions:                                8
       Number of Cartesian basis functions:                                   19
       Number of spherical basis functions:                                   18
       Norm type:                                                              2

       Normalised Cartesian orbitals:

                        Set   Shell   Orbital            Exponent    Coefficient

                          1       1    1s                0.072000       0.000000
                                                         0.148404       0.047043
                                                         0.287959       0.206056
                                                         0.581913       0.071732
                                                         1.300021      -0.154888
                                                         3.466625      -0.128563

                          1       2    2s                0.072000       0.024465
                                                         0.148404       0.270123
                                                         0.287959      -0.286184
                                                         0.581913       0.001423
                                                         1.300021       0.046778
                                                         3.466625       0.000000

                          1       3    2px               0.072000       0.000000
                                                         0.148404       0.013902
                                                         0.287959       0.147021
                                                         0.581913       0.300295
                                                         1.300021       0.150808
                                                         3.466625      -0.123340
                          1       3    2py               0.072000       0.000000
                                                         0.148404       0.013902
                                                         0.287959       0.147021
                                                         0.581913       0.300295
                                                         1.300021       0.150808
                                                         3.466625      -0.123340
                          1       3    2pz               0.072000       0.000000
                                                         0.148404       0.013902
                                                         0.287959       0.147021
                                                         0.581913       0.300295
                                                         1.300021       0.150808
                                                         3.466625      -0.123340

                          1       4    3px               0.072000      -0.066040
                                                         0.148404       0.050064
                                                         0.287959      -0.069730
                                                         0.581913       0.158592
                                                         1.300021      -0.055990
                                                         3.466625       0.000000
                          1       4    3py               0.072000      -0.066040
                                                         0.148404       0.050064
                                                         0.287959      -0.069730
                                                         0.581913       0.158592
                                                         1.300021      -0.055990
                                                         3.466625       0.000000
                          1       4    3pz               0.072000      -0.066040
                                                         0.148404       0.050064
                                                         0.287959      -0.069730
                                                         0.581913       0.158592
                                                         1.300021      -0.055990
                                                         3.466625       0.000000

                          1       5    3dx2              0.072000       0.001679
                                                         0.148404       0.023049
                                                         0.287959       0.065695
                                                         0.581913       0.132541
                                                         1.300021       0.392654
                                                         3.466625       0.000000
                          1       5    3dxy              0.072000       0.002907
                                                         0.148404       0.039921
                                                         0.287959       0.113787
                                                         0.581913       0.229567
                                                         1.300021       0.680096
                                                         3.466625       0.000000
                          1       5    3dxz              0.072000       0.002907
                                                         0.148404       0.039921
                                                         0.287959       0.113787
                                                         0.581913       0.229567
                                                         1.300021       0.680096
                                                         3.466625       0.000000
                          1       5    3dy2              0.072000       0.001679
                                                         0.148404       0.023049
                                                         0.287959       0.065695
                                                         0.581913       0.132541
                                                         1.300021       0.392654
                                                         3.466625       0.000000
                          1       5    3dyz              0.072000       0.002907
                                                         0.148404       0.039921
                                                         0.287959       0.113787
                                                         0.581913       0.229567
                                                         1.300021       0.680096
                                                         3.466625       0.000000
                          1       5    3dz2              0.072000       0.001679
                                                         0.148404       0.023049
                                                         0.287959       0.065695
                                                         0.581913       0.132541
                                                         1.300021       0.392654
                                                         3.466625       0.000000

                          2       1    1s                3.552198       1.097452
                                                         1.628232       0.247277

                          2       2    2px               3.552198       2.960247
                                                         1.628232       0.266650
                          2       2    2py               3.552198       2.960247
                                                         1.628232       0.266650
                          2       2    2pz               3.552198       2.960247
                                                         1.628232       0.266650

                          3       1    1s         

     AE Potential information for                                            ALL

       Description:                                       All-electron potential
                                          Krack, Parrinello, PCCP 2, 2105 (2000)

       Gaussian exponent of the core charge distribution:               2.834467
       Electronic configuration (s p d ...):                           6  10   0

  4. Atomic kind: N                                     Number of atoms:       1

     Orbital Basis Set                                      aug-SZV-MOLOPT-ae-SR

       Number of orbital shell sets:                                           2
       Number of orbital shells:                                               6
       Number of primitive Cartesian functions:                                7
       Number of Cartesian basis functions:                                   15
       Number of spherical basis functions:                                   14
       Norm type:                                                              2

       Normalised Cartesian orbitals:

                        Set   Shell   Orbital            Exponent    Coefficient

                          1       1    1s                0.112012       0.000000
                                                         0.285714       0.194997
                                                         0.878497       0.258372
                                                         3.780456      -0.193164

                          1       2    2s                0.112012       0.083551
                                                         0.285714      -0.189186
                                                         0.878497      -0.469875
                                                         3.780456      -0.002085

                          1       3    2px               0.112012       0.000000
                                                         0.285714       0.116706
                                                         0.878497       0.736704
                                                         3.780456       1.171553
                          1       3    2py               0.112012       0.000000
                                                         0.285714       0.116706
                                                         0.878497       0.736704
                                                         3.780456       1.171553
                          1       3    2pz               0.112012       0.000000
                                                         0.285714       0.116706
                                                         0.878497       0.736704
                                                         3.780456       1.171553

                          1       4    3px               0.112012       0.141957
                                                         0.285714      -0.286713
                                                         0.878497       0.074784
                                                         3.780456       0.008085
                          1       4    3py               0.112012       0.141957
                                                         0.285714      -0.286713
                                                         0.878497       0.074784
                                                         3.780456       0.008085
                          1       4    3pz               0.112012       0.141957
                                                         0.285714      -0.286713
                                                         0.878497       0.074784
                                                         3.780456       0.008085

                          1       5    3dx2              0.112012      -0.000364
                                                         0.285714       0.186009
                                                         0.878497      -0.044751
                                                         3.780456       1.815169
                          1       5    3dxy              0.112012      -0.000630
                                                         0.285714       0.322177
                                                         0.878497      -0.077512
                                                         3.780456       3.143965
                          1       5    3dxz              0.112012      -0.000630
                                                         0.285714       0.322177
                                                         0.878497      -0.077512
                                                         3.780456       3.143965
                          1       5    3dy2              0.112012      -0.000364
                                                         0.285714       0.186009
                                                         0.878497      -0.044751
                                                         3.780456       1.815169
                          1       5    3dyz              0.112012      -0.000630
                                                         0.285714       0.322177
                                                         0.878497      -0.077512
                                                         3.780456       3.143965
                          1       5    3dz2              0.112012      -0.000364
                                                         0.285714       0.186009
                                                         0.878497      -0.044751
                                                         3.780456       1.815169

                          2       1    1s               99.106169       3.454881
                                                        18.052312       3.341410
                                                         4.885660       1.041372

     RI Auxiliary Basis Set             RI_aug-SZV-MOLOPT-ae-SR_N_RI_089_s_p_d_f

       Number of orbital shell sets:                                          21
       Number of orbital shells:                                              21
       Number of primitive Cartesian functions:                               21
       Number of Cartesian basis functions:                                  120
       Number of spherical basis functions:                                   89
       Norm type:                                                              2

       Normalised Cartesian orbitals:

                        Set   Shell   Orbital            Exponent    Coefficient

                          1       1    1s                0.267502       0.265097

                          2       1    7px               0.363169       0.401861
                          2       1    7py               0.363169       0.401861
                          2       1    7pz               0.363169       0.401861

                          3       1   12dx2              0.369517       0.288250
                          3       1   12dxy              0.369517       0.499264
                          3       1   12dxz              0.369517       0.499264
                          3       1   12dy2              0.369517       0.288250
                          3       1   12dyz              0.369517       0.499264
                          3       1   12dz2              0.369517       0.288250

                          4       1    2s                0.470345       0.404783

                          5       1   16fx3              0.516119       0.332385
                          5       1   16fx2y             0.516119       0.743236
                          5       1   16fx2z             0.516119       0.743236
                          5       1   16fxy2             0.516119       0.743236
                          5       1   16fxyz             0.516119       1.287322
                          5       1   16fxz2             0.516119       0.743236
[...]
 calculate_vxc_atom                  80  8.0    0.037    0.237    1.935    1.937
 rpa_num_int_RPA_matrix_operati     100  7.0    0.001    0.002    1.664    1.669
 gaVxcgb_GC                         316  9.0    0.029    1.604    0.029    1.604
 transfer_pw2rs_30                   80 12.0    0.753    0.824    1.427    1.585
 diagonalize_C                        1  8.0    0.000    0.000    1.485    1.486
 eigensolver_symm                    80  6.0    0.005    0.006    1.355    1.358
 transfer_rs2pw_30                   80  9.0    0.334    0.368    1.146    1.238
 calc_mat_Q                         100  8.0    0.000    0.000    1.221    1.230
 contract_S_to_Q                    100  9.0    0.000    0.000    1.218    1.228
 transfer_pw2rs_90                   80 12.0    0.157    0.202    1.006    1.177
 integrate_four_center_main          80 10.0    0.024    0.630    0.394    1.161
 pw_scatter_p                       874 12.1    1.114    1.151    1.114    1.151
 mp_sendrecv_dv                   12640 10.0    1.058    1.122    1.058    1.122
 powell_optimize                 722923 11.0    1.042    1.076    1.042    1.076
 calc_screening_functions             1 10.0    0.375    0.383    0.985    1.023
 pw_derive                          714 11.3    0.947    1.013    0.947    1.013
 calculate_rho_atom                 320  9.0    0.312    1.010    0.312    1.010
 transfer_rs2pw_90                   80  9.0    0.181    0.226    0.828    0.946
 cp2k_distribution_to_z_slices       80  9.0    0.298    0.332    0.900    0.930
 transfer_pw2rs_10                   80 12.0    0.128    0.137    0.825    0.902
 pw_gather_p                        798 11.8    0.826    0.878    0.826    0.878
 mp_sum_dv                         9590 10.5    0.829    0.868    0.829    0.868
 pw_copy                           1195 10.6    0.829    0.867    0.829    0.867
 create_hermitian_form_of_ABBA        1  8.0    0.000    0.000    0.821    0.825
 fft_wrap_pw1pw2_90                 160 10.5    0.025    0.026    0.777    0.805
 cp_fm_power                          2  7.5    0.013    0.014    0.729    0.735
 mp_sum_dm                         2004  7.6    0.584    0.695    0.584    0.695
 calc_pair_dist_radii                 1 10.0    0.239    0.245    0.671    0.685
 rs_grid_zero                       403 11.1    0.587    0.621    0.587    0.621
 compute_vec_Sigma_x_minus_vxc_       1  4.0    0.000    0.000    0.601    0.601
 cp_fm_to_fm_submat_general         112 10.1    0.393    0.596    0.393    0.596
 pw_poisson_set                      81  8.9    0.001    0.001    0.545    0.580
 pw_copy_to_array                   798 11.8    0.473    0.573    0.473    0.573
 mp_isend_dv                      13776 11.8    0.206    0.561    0.206    0.561
 integrate_four_center_bin         8183 11.0    0.370    0.531    0.370    0.531
 cp_fm_cholesky_invert              101  8.0    0.509    0.521    0.509    0.521
 pw_copy_from_array                 874 12.1    0.407    0.490    0.407    0.490
 mp2_ri_gpw_compute_in                1  5.0    0.000    0.000    0.484    0.484
 cp_fm_cholesky_decompose           102  9.0    0.421    0.436    0.421    0.436
 pw_axpy                            875  9.2    0.401    0.425    0.401    0.425
 mp2_ri_gpw_compute_in_loop           1  6.0    0.000    0.000    0.421    0.421
 compute_Erpa_by_freq_int           100  8.0    0.001    0.008    0.416    0.419
 transfer_rs2pw_10                   80  9.0    0.081    0.087    0.327    0.401
 pw_integral_ab_c1d_c1d_gs           80  9.0    0.351    0.358    0.385    0.399
 pw_poisson_rebuild                  80  9.0    0.000    0.000    0.370    0.390
 ps_wavelet_create                    1 10.0    0.000    0.000    0.370    0.390
 RS_z_slice_distribution              1 11.0    0.253    0.286    0.370    0.390
 mp_isendrecv_dv                  25280 12.0    0.041    0.388    0.041    0.388
 dbcsr_complete_redistribute        300  8.5    0.010    0.013    0.379    0.383
 mp_isend_dm3                      2898 11.5    0.064    0.381    0.064    0.381
 rs_gather_matrices                  80 10.0    0.002    0.003    0.296    0.350
 calculate_dm_sparse                 79  6.0    0.000    0.000    0.331    0.346
 cp_dbcsr_plus_fm_fm_t               79  7.0    0.001    0.001    0.330    0.345
 contract_B_L                         4  7.0    0.001    0.002    0.298    0.345
 copy_dbcsr_to_fm                   138  6.8    0.002    0.002    0.328    0.336
 qs_energies_init_hamiltonians        1  3.0    0.000    0.000    0.329    0.329
 grid_integrate_task_list            80 10.0    0.059    0.280    0.059    0.280
 build_core_hamiltonian_matrix        1  4.0    0.000    0.000    0.279    0.279
 overlap_condnum                      1  5.0    0.000    0.000    0.277    0.278
 arnoldi_conjugate_gradient           5  6.0    0.005    0.007    0.258    0.258
 mp2_main_alloc_hfx                   1  4.0    0.132    0.245    0.132    0.245
 mp_sum_i                            19  9.5    0.113    0.244    0.113    0.244
 restraint_control                    1  2.0    0.000    0.000    0.112    0.244
 pw_zero                            476 10.3    0.211    0.222    0.211    0.222
 init_scf_run                         1  3.0    0.000    0.000    0.219    0.219
 Vh_1c_gg_integrals                  80  8.0    0.008    0.148    0.202    0.218
 scf_env_initial_rho_setup            1  4.0    0.000    0.000    0.210    0.210
 copy_fm_to_dbcsr                   162  8.1    0.000    0.000    0.206    0.209
 fft_wrap_pw1pw2_30                 160 10.5    0.005    0.005    0.196    0.203
 mp_alltoall_i11v                  1040  9.4    0.200    0.201    0.200    0.201
 dbcsr_multiply_generic             180  8.1    0.004    0.005    0.177    0.193
 calculate_rho_atom_coeff            80  6.0    0.017    0.023    0.185    0.188
 mp_cart_create                     604  9.9    0.138    0.186    0.139    0.187
 qs_init_subsys                       1  2.0    0.001    0.001    0.176    0.177
 dbt_total                            8  8.0    0.000    0.000    0.176    0.176
 mp_comm_split_direct                48 14.5    0.159    0.174    0.159    0.174
 qs_env_setup                         1  3.0    0.000    0.000    0.172    0.173
 qs_env_rebuild_pw_env                2  3.5    0.000    0.000    0.172    0.173
 pw_env_rebuild                       1  5.0    0.000    0.000    0.171    0.173
 create_qs_kind_set                   1  2.0    0.000    0.000    0.167    0.167
 read_qs_kind                         5  3.0    0.070    0.096    0.167    0.167
 mp2_eri_3c_integrate                 1  7.0    0.001    0.002    0.075    0.165
 dbt_contract                         4  9.0    0.000    0.000    0.160    0.164
 integrate_set_3c                  2680  8.0    0.063    0.143    0.074    0.163
 mp2_main_free_hfx                    1  4.0    0.016    0.162    0.016    0.162
 pw_grid_setup                        4  6.0    0.000    0.000    0.157    0.159
 pw_grid_setup_internal               4  7.0    0.002    0.003    0.157    0.159
 dbcsr_desymmetrize_deep            140  7.8    0.003    0.003    0.150    0.158
 dbt_pgrid_create_expert             84 10.8    0.000    0.000    0.109    0.156
 dbcsr_sym_matrix_vector_mult      1715  7.0    0.012    0.013    0.148    0.156
 mp_max_i                           658  2.9    0.118    0.143    0.118    0.143
 dbt_tas_multiply                     8 11.5    0.000    0.000    0.129    0.129
 dbt_tas_total                        8 12.5    0.001    0.004    0.129    0.129
 mp_sum_l                          1172  6.7    0.098    0.129    0.098    0.129
 fft_wrap_pw1pw2_10                 160 10.5    0.001    0.001    0.118    0.122
 pw_grid_sort                         4  8.0    0.082    0.085    0.111    0.114
 integrate_four_center_load          80 10.0    0.000    0.000    0.077    0.112
 hfx_load_balance                     1 11.0    0.000    0.000    0.077    0.112
 postprocess_bse                      1  9.0    0.000    0.000    0.106    0.108
 parser_read_line                 31006  4.0    0.005    0.005    0.097    0.098
 parser_read_line_low                46  5.0    0.002    0.025    0.092    0.094
 broadcast_input_information         46  6.0    0.007    0.008    0.090    0.092
 dbcsr_add_d                       2637  7.1    0.001    0.001    0.017    0.091
 dbcsr_add_anytype                 2637  8.1    0.002    0.012    0.016    0.090
 scale_and_distribute               160 10.0    0.068    0.087    0.068    0.087
 cp_fm_symm                          80  7.0    0.075    0.086    0.075    0.086
 vxc_of_r_new                       632  9.0    0.000    0.013    0.002    0.084
 multiply_cannon                    180  9.1    0.008    0.011    0.062    0.079
 make_m2s                           360  9.1    0.003    0.003    0.072    0.075
 hfx_load_balance_range               1 12.0    0.000    0.000    0.039    0.074
 hybrid_alltoall_any                500 11.1    0.004    0.005    0.069    0.073
 cp_fm_uplo_to_full                 189  8.4    0.047    0.071    0.047    0.071
 mp_bcast_i_src                     184  7.0    0.058    0.066    0.058    0.066
 dbt_tas_dbm                          8 13.5    0.000    0.000    0.066    0.066
 pw_scale                           317  9.5    0.045    0.066    0.045    0.066
 dbcsr_finalize                    4710 10.8    0.006    0.018    0.028    0.065
 get_2c_integrals                     1  6.0    0.000    0.000    0.060    0.063
 get_multipoles_mo                    1 10.0    0.000    0.000    0.061    0.062
 dbt_tas_mm_1N                        8 14.5    0.000    0.000    0.057    0.062
 dbm_multiply                         8 15.5    0.057    0.062    0.057    0.062
 mp_irecv_dv                      13778 11.8    0.011    0.060    0.011    0.060
 update_ks_atom                      80  8.0    0.013    0.018    0.045    0.060
 create_A                             1  8.0    0.001    0.001    0.059    0.059
 dbcsr_col_vec_to_rep_row          1715  8.0    0.006    0.006    0.051    0.059
 multiply_cannon_loop               180 10.1    0.005    0.006    0.042    0.058
 calc_fm_mat_S_rpa                  100  9.0    0.003    0.054    0.003    0.054
 mp_rank_compare                   1672 12.9    0.049    0.053    0.049    0.053
 mp_alltoall_i22                    440  9.3    0.039    0.053    0.039    0.053
 fm_general_add_bse                   5 10.2    0.000    0.000    0.049    0.052
 create_integ_mat                     4  6.0    0.001    0.001    0.050    0.051
 dbcsr_rep_row_to_rep_col_vec      1715  8.0    0.004    0.005    0.033    0.050
 create_B                             1  8.0    0.000    0.000    0.046    0.050
 qs_env_update_s_mstruct              1  4.0    0.000    0.000    0.049    0.049
 mp_irecv_dm3                      2898 11.5    0.010    0.049    0.010    0.049
 scf_post_calculation_gpw             1  3.0    0.000    0.000    0.048    0.048
 write_available_results              1  4.0    0.000    0.000    0.048    0.048
 write_mo_free_results                1  5.0    0.004    0.005    0.048    0.048
 calculate_rho_core                   1  5.0    0.003    0.004    0.047    0.047
 integrate_four_center_dist_KS       80 10.0    0.006    0.007    0.043    0.046
 rs_scatter_matrices                 80  7.0    0.001    0.001    0.045    0.046
 mp_bcast_dm                       1280  9.0    0.032    0.045    0.032    0.045
 integrate_four_center_getP          80 10.0    0.006    0.007    0.042    0.045
 calculate_rho0_atom                400  9.0    0.043    0.045    0.043    0.045
 array2fm                             4  7.0    0.000    0.000    0.041    0.045
 make_images                        360 10.1    0.007    0.008    0.041    0.044
 write_mo_set_to_restart             79  5.0    0.001    0.034    0.036    0.043
 compute_2c_integrals                 1  7.0    0.000    0.000    0.026    0.040
 cp_fm_syrk                           3  7.0    0.038    0.040    0.038    0.040
 mp_bcast_dv                       1715  9.0    0.033    0.039    0.033    0.039
 Q_trace_and_add_unit_matrix        100  8.0    0.001    0.011    0.027    0.036
 dbcsr_iterator_start             23624  9.0    0.020    0.028    0.023    0.035
 write_mo_set_low                     4  6.0    0.000    0.000    0.034    0.035
 cp_fm_write_unformatted              4  7.0    0.034    0.035    0.034    0.035
 sort_shells                          4  9.0    0.029    0.034    0.029    0.034
 hfx_load_balance_redist              1 12.0    0.003    0.003    0.034    0.034
 cholesky_decomp                      1  7.0    0.000    0.000    0.018    0.033
 multiply_cannon_metrocomm3        1776 11.1    0.002    0.002    0.014    0.033
 dbt_copy                            12 10.0    0.000    0.000    0.027    0.031
 mp_cart_sub                        280  8.8    0.031    0.031    0.031    0.031
 mp_isendrecv_lv                    158 13.0    0.002    0.030    0.002    0.030
 dbt_tas_estimate_result_nze          4 12.0    0.000    0.003    0.027    0.030
 dbcsr_merge_all                   3592 11.5    0.010    0.022    0.015    0.029
 offload_free_buffer                 88  8.5    0.017    0.029    0.017    0.029
 cp_dbcsr_sm_fm_multiply              3 11.0    0.000    0.000    0.028    0.029
 dbt_tas_distribution_new            94 11.7    0.016    0.016    0.028    0.028
 mixing_init                          1  5.0    0.026    0.028    0.028    0.028
 mp_bcast_am_src                     46  7.0    0.023    0.027    0.023    0.027
 self_consistency_check              79  5.0    0.000    0.000    0.018    0.027
 cp_sm_mix                           79  6.0    0.000    0.000    0.018    0.027
 mp_maxloc_dv                      1515  1.0    0.024    0.027    0.024    0.027
 mp_bcast_b_src                     165  7.5    0.014    0.027    0.014    0.027
 mp_max_d                            81  6.9    0.017    0.026    0.017    0.026
 dbt_distribution_new_expert         76 10.1    0.000    0.001    0.026    0.026
 xc_pw_smooth                        79 10.0    0.000    0.000    0.024    0.025
 mult_B_with_W                        1  8.0    0.000    0.000    0.025    0.025
 get_oscillator_strengths             1 10.0    0.000    0.000    0.024    0.024
 dbt_reshape                          8 11.5    0.003    0.006    0.019    0.024
 dbcsr_copy                        7813  7.7    0.013    0.014    0.022    0.023
 array2fm_info                        4  8.0    0.017    0.022    0.019    0.023
 dbcsr_work_create                 4428 10.6    0.005    0.015    0.008    0.023
 hirshfeld_integration                1  6.0    0.001    0.005    0.022    0.022
 print_transition_amplitudes          1 10.0    0.000    0.000    0.022    0.022
 print_transition_amplitudes_co      50 11.0    0.000    0.000    0.022    0.022
 filter_eigvec_contrib               50 12.0    0.003    0.003    0.021    0.022
 dbcsr_crop_matrix                  474 10.0    0.002    0.002    0.020    0.021
 make_images_sizes                  360 11.1    0.000    0.000    0.016    0.021
 mp_alltoall_i44                    360 12.1    0.016    0.020    0.016    0.020
 abc_contract                      2680  9.0    0.011    0.020    0.011    0.020
 dbcsr_create_new                 11237  9.2    0.013    0.014    0.018    0.019
 dbt_remap                            8 10.0    0.001    0.001    0.018    0.018
 mp_sum_iv                          219  9.9    0.015    0.018    0.015    0.018
 dbt_tas_create_split                44 13.2    0.000    0.000    0.018    0.018
 dbt_tas_create_split_rows_or_c      44 14.2    0.000    0.000    0.018    0.018
 mp_sum_lv                          121  2.3    0.014    0.018    0.014    0.018
 dbcsr_iterator_stop              23624  9.0    0.011    0.015    0.013    0.018
 calculate_hirshfeld_normalizat       1  6.0    0.001    0.005    0.017    0.017
 mp_sum_im                         4017 13.0    0.015    0.017    0.015    0.017
 pw_grid_remap                        4  8.0    0.003    0.003    0.013    0.017
 fm_general_add_bse_5_comm_buff       5 11.2    0.000    0.000    0.012    0.016
 mp_waitall_2                        50 15.8    0.012    0.016    0.012    0.016
 communicate_buffer                   5 12.2    0.000    0.000    0.012    0.016
 dbt_communicate_buffer               8 12.5    0.000    0.000    0.013    0.016
 dbcsr_work_destroy_all            4428 11.6    0.004    0.012    0.006    0.016
 dbcsr_copy_submatrix               474 11.0    0.002    0.002    0.015    0.016
 multiply_cannon_multrec           1776 11.1    0.011    0.015    0.012    0.016
 mp_bcast_av                        758  1.0    0.005    0.006    0.011    0.015
 cp_fm_redistribute_start            85  8.0    0.000    0.000    0.009    0.015
 fm_general_add_bse_1_setup           5 11.2    0.013    0.015    0.013    0.015
 array2fm_fill                        4  8.0    0.002    0.003    0.008    0.014
 dbt_split_blocks_generic            20  8.8    0.002    0.002    0.014    0.014
 pw_grid_assign                       4  8.0    0.013    0.014    0.014    0.014
 mp_sum_im3                           4  9.0    0.011    0.014    0.011    0.014
 mp_bcast_iv                        161  3.7    0.004    0.014    0.004    0.014
 reshape_mm_small                     8 13.5    0.001    0.001    0.013    0.014
 multiply_cannon_metrocomm4        1596 11.1    0.002    0.003    0.005    0.013
 array2fm_buffer_send                 4  8.0    0.012    0.013    0.012    0.013
 make_images_data                   360 11.1    0.002    0.003    0.009    0.013
 evaluate_core_matrix_traces         79  6.0    0.000    0.000    0.011    0.013
 dbcsr_dot                          159  8.0    0.001    0.001    0.011    0.013
 dbt_tas_replicate                    8 13.5    0.003    0.004    0.011    0.013
 ao_to_mo_and_store_B_mult_gw_1      12  7.0    0.000    0.000    0.010    0.013
 calculate_ptrace_kp                158  7.0    0.000    0.000    0.011    0.013
 ao_to_mo_and_store_B_mult_bse_      12  7.0    0.000    0.000    0.010    0.012
 dbcsr_data_new                   43483 11.0    0.007    0.012    0.007    0.012
 ao_to_mo_and_store_B_mult_1         12  7.0    0.000    0.000    0.009    0.012
 invert_mat                           1  7.0    0.000    0.000    0.009    0.012
 dbt_create_new                      40  9.5    0.000    0.000    0.012    0.012
 cp_fm_triangular_invert              1  8.0    0.009    0.012    0.009    0.012
 reshape_mm_compatible                8 13.5    0.000    0.000    0.012    0.012
 compute_max_radius                   1  6.0    0.011    0.011    0.011    0.011
 mp_wait                             97  9.0    0.006    0.011    0.006    0.011
 create_fast_row_vec_access        3430  8.0    0.006    0.007    0.010    0.011
 external_control                    80  5.0    0.000    0.008    0.011    0.011
 dbcsr_data_release               71512 10.7    0.007    0.011    0.007    0.011
 create_fast_col_vec_access        3430  8.0    0.007    0.007    0.010    0.011
 hfx_create                           1  2.0    0.009    0.010    0.009    0.011
 -------------------------------------------------------------------------------

 The number of warnings for this run is : 1
 
 -------------------------------------------------------------------------------
  **** **** ******  **  PROGRAM ENDED AT                 2025-06-04 00:55:09.031
 ***** ** ***  *** **   PROGRAM RAN ON                                  n2cn0257
 **    ****   ******    PROGRAM RAN BY                                  metdyn02
 ***** **    ** ** **   PROGRAM PROCESS ID                               1887648
  **** **  *******  **  PROGRAM STOPPED IN /scratch/hpc-prf-metdyn/metdyn02_Remi
                                           /10_MOL/05_MOL/aUKBqsEOTmq69kFe5R_nOg
                                           /5k_set_final_qzvp/HORZEU/SZVSR/GW+BS
                                           E/RILIM
