 DBCSR| CPU Multiplication driver                                           BLAS (U)
 DBCSR| Multrec recursion limit                                              512 (U)
 DBCSR| Multiplication stack size                                           1000 (D)
 DBCSR| Maximum elements for images                                    UNLIMITED (U)
 DBCSR| Multiplicative factor virtual images                                   1 (U)
 DBCSR| Use multiplication densification                                       T (D)
 DBCSR| Multiplication size stacks                                             3 (U)
 DBCSR| Use memory pool for CPU allocation                                     F (U)
 DBCSR| Number of 3D layers                                               SINGLE (U)
 DBCSR| Use MPI memory allocation                                              F (U)
 DBCSR| Use RMA algorithm                                                      F (U)
 DBCSR| Use Communication thread                                               T (U)
 DBCSR| Communication thread load                                             45 (D)
 DBCSR| MPI: My process id                                                     0
 DBCSR| MPI: Number of processes                                              16
 DBCSR| OMP: Current number of threads                                        12
 DBCSR| OMP: Max number of threads                                            12
 DBCSR| Split modifier for TAS multiplication algorithm                  1.0E+00 (U)


  **** **** ******  **  PROGRAM STARTED AT               2025-05-11 18:49:26.587
 ***** ** ***  *** **   PROGRAM STARTED ON                          f01r01c01s12
 **    ****   ******    PROGRAM STARTED BY                               di38fab
 ***** **    ** ** **   PROGRAM PROCESS ID                               1483600
  **** **  *******  **  PROGRAM STARTED IN /hppfs/scratch/04/di38fab/05_MOL/aUKB
                                           qsEOTmq69kFe5R_nOg/5k_set_final_qzvp/
                                           VENQEL/aug-cc-pV5Z/TDDFT

 CP2K| version string:                 CP2K version 2025.1 (Development Version)
 CP2K| source code revision number:                             unknown revision
 CP2K| cp2kflags: omp libint fftw3 libxc parallel scalapack max_contr=4         
 CP2K| is freely available from                            https://www.cp2k.org/
 CP2K| Program compiled at                         Thu Apr 10 16:20:23 CEST 2025
 CP2K| Program compiled on                                               login01
 CP2K| Program compiled for                                        Supermuc-foss
 CP2K| Data directory path                  /hppfs/work/pn36zo/di38fab/cp2k/data
 CP2K| Input file name                                                    GW.inp

 GLOBAL| Force Environment number                                              1
 GLOBAL| Basis set file name            /hppfs/scratch/04/di38fab/04_TMD/BASIS_A
 GLOBAL| Potential file name            /hppfs/work/pn36zo/di38fab/cp2k/data/ALL
 GLOBAL| MM Potential file name                                     MM_POTENTIAL
 GLOBAL| Coordinate file name                                      __STD_INPUT__
 GLOBAL| Method name                                                        CP2K
 GLOBAL| Project name                                                       MoS2
 GLOBAL| Run type                                                         ENERGY
 GLOBAL| FFT library                                                       FFTW3
 GLOBAL| Diagonalization library                                       ScaLAPACK
 GLOBAL| DGEMM library                                                      BLAS
 GLOBAL| Orthonormality check for eigenvectors                          DISABLED
 GLOBAL| Matrix multiplication library                                 ScaLAPACK
 GLOBAL| All-to-all communication in single precision                          F
 GLOBAL| FFTs using library dependent lengths                                  F
 GLOBAL| Grid backend                                                       AUTO
 GLOBAL| Global print level                                               MEDIUM
 GLOBAL| MPI I/O enabled                                                       T
 GLOBAL| Total number of message passing processes                            16
 GLOBAL| Number of threads for this process                                   12
 GLOBAL| This output is from process                                           0
 GLOBAL| OpenMP stack size per thread (OMP_STACKSIZE)                    default
 GLOBAL| CPU model name             Intel(R) Xeon(R) Platinum 8174 CPU @ 3.10GHz

 MEMORY| system memory details [Kb]
 MEMORY|                        rank 0           min           max       average
 MEMORY| MemTotal            792068892     792068880     792068932     792068899
 MEMORY| MemFree             780366140     779088536     780366140     780022212
 MEMORY| Buffers                     0             0             0             0
 MEMORY| Cached                2259236       2259236       2296348       2274452
 MEMORY| Slab                   943300        943300       1200656       1017437
 MEMORY| SReclaimable           203312        203312        271428        225163
 MEMORY| MemLikelyFree       782828688     781612716     782828688     782521827


 *** Fundamental physical constants (SI units) ***

 *** Literature: B. J. Mohr and B. N. Taylor,
 ***             CODATA recommended values of the fundamental physical
 ***             constants: 2006, Web Version 5.1
 ***             http://physics.nist.gov/constants

 Speed of light in vacuum [m/s]                             2.99792458000000E+08
 Magnetic constant or permeability of vacuum [N/A**2]       1.25663706143592E-06
 Electric constant or permittivity of vacuum [F/m]          8.85418781762039E-12
 Planck constant (h) [J*s]                                  6.62606896000000E-34
 Planck constant (h-bar) [J*s]                              1.05457162825177E-34
 Elementary charge [C]                                      1.60217648700000E-19
 Electron mass [kg]                                         9.10938215000000E-31
 Electron g factor [ ]                                     -2.00231930436220E+00
 Proton mass [kg]                                           1.67262163700000E-27
 Fine-structure constant                                    7.29735253760000E-03
 Rydberg constant [1/m]                                     1.09737315685270E+07
 Avogadro constant [1/mol]                                  6.02214179000000E+23
 Boltzmann constant [J/K]                                   1.38065040000000E-23
 Atomic mass unit [kg]                                      1.66053878200000E-27
 Bohr radius [m]                                            5.29177208590000E-11

 *** Conversion factors ***

 [u] -> [a.u.]                                              1.82288848426455E+03
 [Angstrom] -> [Bohr] = [a.u.]                              1.88972613288564E+00
 [a.u.] = [Bohr] -> [Angstrom]                              5.29177208590000E-01
 [a.u.] -> [s]                                              2.41888432650478E-17
 [a.u.] -> [fs]                                             2.41888432650478E-02
 [a.u.] -> [J]                                              4.35974393937059E-18
 [a.u.] -> [N]                                              8.23872205491840E-08
 [a.u.] -> [K]                                              3.15774647902944E+05
 [a.u.] -> [kJ/mol]                                         2.62549961709828E+03
 [a.u.] -> [kcal/mol]                                       6.27509468713739E+02
 [a.u.] -> [Pa]                                             2.94210107994716E+13
 [a.u.] -> [bar]                                            2.94210107994716E+08
 [a.u.] -> [atm]                                            2.90362800883016E+08
 [a.u.] -> [eV]                                             2.72113838565563E+01
 [a.u.] -> [Hz]                                             6.57968392072181E+15
 [a.u.] -> [1/cm] (wave numbers)                            2.19474631370540E+05
 [a.u./Bohr**2] -> [1/cm]                                   5.14048714338585E+03
 

 CELL_TOP| Volume [angstrom^3]:                                     27000.000000
 CELL_TOP| Vector a [angstrom    30.000     0.000     0.000   |a| =    30.000000
 CELL_TOP| Vector b [angstrom     0.000    30.000     0.000   |b| =    30.000000
 CELL_TOP| Vector c [angstrom     0.000     0.000    30.000   |c| =    30.000000
 CELL_TOP| Angle (b,c), alpha [degree]:                                90.000000
 CELL_TOP| Angle (a,c), beta  [degree]:                                90.000000
 CELL_TOP| Angle (a,b), gamma [degree]:                                90.000000
 CELL_TOP| Numerically orthorhombic:                                         YES
 CELL_TOP| Periodicity                                                      NONE

 GENERATE|  Preliminary Number of Bonds generated:                             0
 GENERATE|  Achieved consistency in connectivity generation.

 CELL| Volume [angstrom^3]:                                         27000.000000
 CELL| Vector a [angstrom]:      30.000     0.000     0.000   |a| =    30.000000
 CELL| Vector b [angstrom]:       0.000    30.000     0.000   |b| =    30.000000
 CELL| Vector c [angstrom]:       0.000     0.000    30.000   |c| =    30.000000
 CELL| Angle (b,c), alpha [degree]:                                    90.000000
 CELL| Angle (a,c), beta  [degree]:                                    90.000000
 CELL| Angle (a,b), gamma [degree]:                                    90.000000
 CELL| Numerically orthorhombic:                                             YES
 CELL| Periodicity                                                          NONE

 CELL_REF| Volume [angstrom^3]:                                     27000.000000
 CELL_REF| Vector a [angstrom    30.000     0.000     0.000   |a| =    30.000000
 CELL_REF| Vector b [angstrom     0.000    30.000     0.000   |b| =    30.000000
 CELL_REF| Vector c [angstrom     0.000     0.000    30.000   |c| =    30.000000
 CELL_REF| Angle (b,c), alpha [degree]:                                90.000000
 CELL_REF| Angle (a,c), beta  [degree]:                                90.000000
 CELL_REF| Angle (a,b), gamma [degree]:                                90.000000
 CELL_REF| Numerically orthorhombic:                                         YES
 CELL_REF| Periodicity                                                      NONE

 *******************************************************************************
 *******************************************************************************
 **                                                                           **
 **     #####                         ##              ##                      **
 **    ##   ##            ##          ##              ##                      **
 **   ##     ##                       ##            ######                    **
 **   ##     ##  ##   ##  ##   #####  ##  ##   ####   ##    #####    #####    **
 **   ##     ##  ##   ##  ##  ##      ## ##   ##      ##   ##   ##  ##   ##   **
 **   ##  ## ##  ##   ##  ##  ##      ####     ###    ##   ######   ######    **
 **    ##  ###   ##   ##  ##  ##      ## ##      ##   ##   ##       ##        **
 **     #######   #####   ##   #####  ##  ##  ####    ##    #####   ##        **
 **           ##                                                    ##        **
 **                                                                           **
 **                                                ... make the atoms dance   **
 **                                                                           **
 **            Copyright (C) by CP2K developers group (2000-2025)             **
 **                      J. Chem. Phys. 152, 194103 (2020)                    **
 **                                                                           **
 *******************************************************************************

 DFT| Spin restricted Kohn-Sham (RKS) calculation                            RKS
 DFT| Multiplicity                                                             1
 DFT| Number of spin states                                                    1
 DFT| Charge                                                                   0
 DFT| Self-interaction correction (SIC)                                       NO
 DFT| Cutoffs: density                                              1.000000E-10
 DFT|          gradient                                             1.000000E-10
 DFT|          tau                                                  1.000000E-10
 DFT|          cutoff_smoothing_range                               0.000000E+00
 DFT| XC density smoothing                                                  NONE
 DFT| XC derivatives                                                          PW

 FUNCTIONAL| PBE:
 FUNCTIONAL| J.P.Perdew, K.Burke, M.Ernzerhof, Phys. Rev. Letter, vol. 77, n 18,
 FUNCTIONAL|  pp. 3865-3868, (1996)sx=0.750sc=1.000{spin unpolarized}           


 QS| Method:                                                                GAPW
 QS| Density plane wave grid type                        NON-SPHERICAL FULLSPACE
 QS| Number of grid levels:                                                    4
 QS| Density cutoff [a.u.]:                                                250.0
 QS| Multi grid cutoff [a.u.]: 1) grid level                               250.0
 QS|                           2) grid level                                83.3
 QS|                           3) grid level                                27.8
 QS|                           4) grid level                                 9.3
 QS| Grid level progression factor:                                          3.0
 QS| Relative density cutoff [a.u.]:                                        50.0
 QS| Interaction thresholds: eps_pgf_orb:                                1.0E-12
 QS|                         eps_filter_matrix:                          0.0E+00
 QS|                         eps_core_charge:                            1.0E-14
 QS|                         eps_rho_gspace:                             1.0E-12
 QS|                         eps_rho_rspace:                             1.0E-12
 QS|                         eps_gvg_rspace:                             1.0E-06
 QS|                         eps_ppl:                                    1.0E-02
 QS|                         eps_ppnl:                                   1.0E-08
 QS| GAPW|      One center basis from orbital basis primitives
 QS| GAPW|                   eps_fit:                                    1.0E-04
 QS| GAPW|                   eps_iso:                                    1.0E-12
 QS| GAPW|                   eps_svd:                                    1.0E-08
 QS| GAPW|                   eps_cpc:                                    1.0E-12
 QS| GAPW|   atom-r-grid: quadrature:                                     GC_LOG
 QS| GAPW|      atom-s-grid:  max l :                                         10
 QS| GAPW|      max_l_rho0 :                                                   2


 ATOMIC KIND INFORMATION

  1. Atomic kind: F                                     Number of atoms:       6

     Orbital Basis Set                                               aug-cc-pV5Z

       Number of orbital shell sets:                                          12
       Number of orbital shells:                                              27
       Number of primitive Cartesian functions:                               38
       Number of Cartesian basis functions:                                  182
       Number of spherical basis functions:                                  127
       Norm type:                                                              2

       Normalised Cartesian orbitals:

                        Set   Shell   Orbital            Exponent    Coefficient

                          1       1    1px               0.055000       0.037966
                          1       1    1py               0.055000       0.037966
                          1       1    1pz               0.055000       0.037966

                          2       1    1s                0.080600       0.107811

                          3       1    1px             241.900000       0.000000
                                                        57.170000       0.000000
                                                        18.130000       0.000000
                                                         6.624000       0.000000
                                                         2.622000       4.755881
                                                         1.057000       0.000000
                                                         0.417600       0.000000
                                                         0.157400       0.000000
                          3       1    1py             241.900000       0.000000
                                                        57.170000       0.000000
                                                        18.130000       0.000000
                                                         6.624000       0.000000
                                                         2.622000       4.755881
                                                         1.057000       0.000000
                                                         0.417600       0.000000
                                                         0.157400       0.000000
                          3       1    1pz             241.900000       0.000000
                                                        57.170000       0.000000
                                                        18.130000       0.000000
                                                         6.624000       0.000000
                                                         2.622000       4.755881
                                                         1.057000       0.000000
                                                         0.417600       0.000000
                                                         0.157400       0.000000

                          3       2    2px             241.900000       0.000000
                                                        57.170000       0.000000
                                                        18.130000       0.000000
                                                         6.624000       0.000000
                                                         2.622000       0.000000
                                                         1.057000       1.527685
                                                         0.417600       0.000000
                                                         0.157400       0.000000
                          3       2    2py             241.900000       0.000000
                                                        57.170000       0.000000
                                                        18.130000       0.000000
                                                         6.624000       0.000000
                                                         2.622000       0.000000
                                                         1.057000       1.527685
                                                         0.417600       0.000000
                                                         0.157400       0.000000
                          3       2    2pz             241.900000       0.000000
                                                        57.170000       0.000000
                                                        18.130000       0.000000
                                                         6.624000       0.000000
                                                         2.622000       0.000000
                                                         1.057000       1.527685
                                                         0.417600       0.000000
                                                         0.157400       0.000000

                          3       3    3px             241.900000       1.362551
                                                        57.170000       1.804730
                                                        18.130000       2.028941
                                                         6.624000       1.874941
                                                         2.622000       1.265350
                                                         1.057000       0.567987
                                                         0.417600       0.159291
                                                         0.157400       0.018158
                          3       3    3py             241.900000       1.362551
                                                        57.170000       1.804730
                                                        18.130000       2.028941
                                                         6.624000       1.874941
                                                         2.622000       1.265350
                                                         1.057000       0.567987
                                                         0.417600       0.159291
                                                         0.157400       0.018158
                          3       3    3pz             241.900000       1.362551
                                                        57.170000       1.804730
                                                        18.130000       2.028941
                                                         6.624000       1.874941
                                                         2.622000       1.265350
                                                         1.057000       0.567987
                                                         0.417600       0.159291
                                                         0.157400       0.018158

                          3       4    4px             241.900000       0.000000
                                                        57.170000       0.000000
                                                        18.130000       0.000000
                                                         6.624000       0.000000
                                                         2.622000       0.000000
                                                         1.057000       0.000000
                                                         0.417600       0.478510
                                                         0.157400       0.000000
                          3       4    4py             241.900000       0.000000
                                                        57.170000       0.000000
                                                        18.130000       0.000000
                                                         6.624000       0.000000
                                                         2.622000       0.000000
                                                         1.057000       0.000000
                                                         0.417600       0.478510
                                                         0.157400       0.000000
                          3       4    4pz             241.900000       0.000000
                                                        57.170000       0.000000
                                                        18.130000       0.000000
                                                         6.624000       0.000000
                                                         2.622000       0.000000
                                                         1.057000       0.000000
                                                         0.417600       0.478510
                                                         0.157400       0.000000

                          3       5    5px             241.900000       0.000000
                                                        57.170000       0.000000
                                                        18.130000       0.000000
                                                         6.624000       0.000000
                                                         2.622000       0.000000
                                                         1.057000       0.000000
                                                         0.417600       0.000000
                                                         0.157400       0.141318
                          3       5    5py             241.900000       0.000000
                                                        57.170000       0.000000
                                                        18.130000       0.000000
                                                         6.624000       0.000000
                                                         2.622000       0.000000
                                                         1.057000       0.000000
                                                         0.417600       0.000000
                                                         0.157400       0.141318
                          3       5    5pz             241.900000       0.000000
                                                        57.170000       0.000000
                                                        18.130000       0.000000
                                                         6.624000       0.000000
                                                         2.622000       0.000000
                                                         1.057000       0.000000
                                                         0.417600       0.000000
                                                         0.157400       0.141318

                          4       1    1dx2              0.172000       0.075611
                          4       1    1dxy              0.172000       0.130962
                          4       1    1dxz              0.172000       0.130962
                          4       1    1dy2              0.172000       0.075611
                          4       1    1dyz              0.172000       0.130962
                          4       1    1dz2              0.172000       0.075611

                          5       1    1s           211400.000000       0.182689
                                                     31660.000000       0.340009
                                                      7202.000000       0.588389
                                                      2040.000000       0.958811
                                                       666.400000       1.473782
                                                       242.000000       2.103902
                                                        95.530000       2.683730
                                                        40.230000       2.863478
                                                        17.720000       2.243808
                                                         8.005000       0.948913
                                                         3.538000       0.116832
                                                         1.458000       0.001051
                                                         0.588700       0.000603
                                                         0.232400      -0.000008

                          5       2    2s           211400.000000       0.000000
                                                     31660.000000       0.000000
                                                      7202.000000       0.000000
                                                      2040.000000       0.000000
                                                       666.400000       0.000000
                                                       242.000000       0.000000
                                                        95.530000       0.000000
                                                        40.230000       0.000000
                                                        17.720000       0.000000
                                                         8.005000       0.000000
                                                         3.538000       1.838563
                                                         1.458000       0.000000
                                                         0.588700       0.000000
                                                         0.232400       0.000000

                          5       3    3s           211400.000000       0.000000
                                                     31660.000000       0.000000
                                                      7202.000000       0.000000
                                                      2040.000000       0.000000
                                                       666.400000       0.000000
                                                       242.000000       0.000000
                                                        95.530000       0.000000
                                                        40.230000       0.000000
                                                        17.720000       0.000000
                                                         8.005000       0.000000
                                                         3.538000       0.000000
                                                         1.458000       0.945645
                                                         0.588700       0.000000
                                                         0.232400       0.000000

                          5       4    4s           211400.000000      -0.042159
                                                     31660.000000      -0.079504
                                                      7202.000000      -0.135953
                                                      2040.000000      -0.223044
                                                       666.400000      -0.344281
                                                       242.000000      -0.503454
                                                        95.530000      -0.667774
                                                        40.230000      -0.792058
                                                        17.720000      -0.763223
                                                         8.005000      -0.509497
                                                         3.538000       0.030263
                                                         1.458000       0.371213
                                                         0.588700       0.254904
                                                         0.232400       0.046882

                          5       5    5s           211400.000000       0.000000
                                                     31660.000000       0.000000
                                                      7202.000000       0.000000
                                                      2040.000000       0.000000
                                                       666.400000       0.000000
                                                       242.000000       0.000000
                                                        95.530000       0.000000
                                                        40.230000       0.000000
                                                        17.720000       0.000000
                                                         8.005000       0.000000
                                                         3.538000       0.000000
                                                         1.458000       0.000000
                                                         0.588700       0.478995
                                                         0.232400       0.000000

                          5       6    6s           211400.000000       0.000000
                                                     31660.000000       0.000000
                                                      7202.000000       0.000000
                                                      2040.000000       0.000000
                                                       666.400000       0.000000
                                                       242.000000       0.000000
                                                        95.530000       0.000000
                                                        40.230000       0.000000
                                                        17.720000       0.000000
                                                         8.005000       0.000000
                                                         3.538000       0.000000
                                                         1.458000       0.000000
                                                         0.588700       0.000000
                                                         0.232400       0.238554

                          6       1    1fx3              0.331000       0.122340
                          6       1    1fx2y             0.331000       0.273560
                          6       1    1fx2z             0.331000       0.273560
                          6       1    1fxy2             0.331000       0.273560
                          6       1    1fxyz             0.331000       0.473820
                          6       1    1fxz2             0.331000       0.273560
                          6       1    1fy3              0.331000       0.122340
                          6       1    1fy2z             0.331000       0.273560
                          6       1    1fyz2             0.331000       0.273560
                          6       1    1fz3              0.331000       0.122340

                          7       1    1dx2              7.760000      59.383729
                                                         3.032000       0.000000
                                                         1.185000       0.000000
                                                         0.463000       0.000000
                          7       1    1dxy              7.760000     102.855636
                                                         3.032000       0.000000
                                                         1.185000       0.000000
                                                         0.463000       0.000000
                          7       1    1dxz              7.760000     102.855636
                                                         3.032000       0.000000
                                                         1.185000       0.000000
                                                         0.463000       0.000000
                          7       1    1dy2              7.760000      59.383729
                                                         3.032000       0.000000
                                                         1.185000       0.000000
                                                         0.463000       0.000000
                          7       1    1dyz              7.760000     102.855636
                                                         3.032000       0.000000
                                                         1.185000       0.000000
                                                         0.463000       0.000000
                          7       1    1dz2              7.760000      59.383729
                                                         3.032000       0.000000
                                                         1.185000       0.000000
                                                         0.463000       0.000000

                          7       2    2dx2              7.760000       0.000000
                                                         3.032000      11.466623
                                                         1.185000       0.000000
                                                         0.463000       0.000000
                          7       2    2dxy              7.760000       0.000000
                                                         3.032000      19.860774
                                                         1.185000       0.000000
                                                         0.463000       0.000000
                          7       2    2dxz              7.760000       0.000000
                                                         3.032000      19.860774
                                                         1.185000       0.000000
                                                         0.463000       0.000000
                          7       2    2dy2              7.760000       0.000000
                                                         3.032000      11.466623
                                                         1.185000       0.000000
                                                         0.463000       0.000000
                          7       2    2dyz              7.760000       0.000000
                                                         3.032000      19.860774
                                                         1.185000       0.000000
                                                         0.463000       0.000000
                          7       2    2dz2              7.760000       0.000000
                                                         3.032000      11.466623
                                                         1.185000       0.000000
                                                         0.463000       0.000000

                          7       3    3dx2              7.760000       0.000000
                                                         3.032000       0.000000
                                                         1.185000       2.215218
                                                         0.463000       0.000000
                          7       3    3dxy              7.760000       0.000000
                                                         3.032000       0.000000
                                                         1.185000       3.836871
                                                         0.463000       0.000000
                          7       3    3dxz              7.760000       0.000000
                                                         3.032000       0.000000
                                                         1.185000       3.836871
                                                         0.463000       0.000000
                          7       3    3dy2              7.760000       0.000000
                                                         3.032000       0.000000
                                                         1.185000       2.215218
                                                         0.463000       0.000000
                          7       3    3dyz              7.760000       0.000000
                                                         3.032000       0.000000
                                                         1.185000       3.836871
                                                         0.463000       0.000000
                          7       3    3dz2              7.760000       0.000000
                                                         3.032000       0.000000
                                                         1.185000       2.215218
                                                         0.463000       0.000000

                          7       4    4dx2              7.760000       0.000000
                                                         3.032000       0.000000
                                                         1.185000       0.000000
                                                         0.463000       0.427736
                          7       4    4dxy              7.760000       0.000000
                                                         3.032000       0.000000
                                                         1.185000       0.000000
                                                         0.463000       0.740861
                          7       4    4dxz              7.760000       0.000000
                                                         3.032000       0.000000
                                                         1.185000       0.000000
                                                         0.463000       0.740861
                          7       4    4dy2              7.760000       0.000000
                                                         3.032000       0.000000
                                                         1.185000       0.000000
                                                         0.463000       0.427736
                          7       4    4dyz              7.760000       0.000000
                                                         3.032000       0.000000
                                                         1.185000       0.000000
                                                         0.463000       0.740861
                          7       4    4dz2              7.760000       0.000000
                                                         3.032000       0.000000
                                                         1.185000       0.000000
                                                         0.463000       0.427736

                          8       1    1gx4              0.663000       0.359416
                          8       1    1gx3y             0.663000       0.950926
                          8       1    1gx3z             0.663000       0.950926
                          8       1    1gx2y2            0.663000       1.227640
                          8       1    1gx2yz            0.663000       2.126335
                          8       1    1gx2z2            0.663000       1.227640
                          8       1    1gxy3             0.663000       0.950926
                          8       1    1gxy2z            0.663000       2.126335
                          8       1    1gxyz2            0.663000       2.126335
                          8       1    1gxz3             0.663000       0.950926
                          8       1    1gy4              0.663000       0.359416
                          8       1    1gy3z             0.663000       0.950926
                          8       1    1gy2z2            0.663000       1.227640
                          8       1    1gyz3             0.663000       0.950926
                          8       1    1gz4              0.663000       0.359416

                          9       1    1fx3              5.398000      65.385045
                                                         2.078000       0.000000
                                                         0.800000       0.000000
                          9       1    1fx2y             5.398000     146.205406
                                                         2.078000       0.000000
                                                         0.800000       0.000000
                          9       1    1fx2z             5.398000     146.205406
                                                         2.078000       0.000000
                                                         0.800000       0.000000
                          9       1    1fxy2             5.398000     146.205406
                                                         2.078000       0.000000
                                                         0.800000       0.000000
                          9       1    1fxyz             5.398000     253.235192
                                                         2.078000       0.000000
                                                         0.800000       0.000000
                          9       1    1fxz2             5.398000     146.205406
                                                         2.078000       0.000000
                                                         0.800000       0.000000
                          9       1    1fy3              5.398000      65.385045
                                                         2.078000       0.000000
                                                         0.800000       0.000000
                          9       1    1fy2z             5.398000     146.205406
                                                         2.078000       0.000000
                                                         0.800000       0.000000
                          9       1    1fyz2             5.398000     146.205406
                                                         2.078000       0.000000
                                                         0.800000       0.000000
                          9       1    1fz3              5.398000      65.385045
                                                         2.078000       0.000000
                                                         0.800000       0.000000

                          9       2    2fx3              5.398000       0.000000
                                                         2.078000       7.632326
                                                         0.800000       0.000000
                          9       2    2fx2y             5.398000       0.000000
                                                         2.078000      17.066400
                                                         0.800000       0.000000
                          9       2    2fx2z             5.398000       0.000000
                                                         2.078000      17.066400
                                                         0.800000       0.000000
                          9       2    2fxy2             5.398000       0.000000
                                                         2.078000      17.066400
                                                         0.800000       0.000000
                          9       2    2fxyz             5.398000       0.000000
                                                         2.078000      29.559872
                                                         0.800000       0.000000
                          9       2    2fxz2             5.398000       0.000000
                                                         2.078000      17.066400
                                                         0.800000       0.000000
                          9       2    2fy3              5.398000       0.000000
                                                         2.078000       7.632326
                                                         0.800000       0.000000
                          9       2    2fy2z             5.398000       0.000000
                                                         2.078000      17.066400
                                                         0.800000       0.000000
                          9       2    2fyz2             5.398000       0.000000
                                                         2.078000      17.066400
                                                         0.800000       0.000000
                          9       2    2fz3              5.398000       0.000000
                                                         2.078000       7.632326
                                                         0.800000       0.000000

                          9       3    3fx3              5.398000       0.000000
                                                         2.078000       0.000000
                                                         0.800000       0.891060
                          9       3    3fx2y             5.398000       0.000000
                                                         2.078000       0.000000
                                                         0.800000       1.992471
                          9       3    3fx2z             5.398000       0.000000
                                                         2.078000       0.000000
                                                         0.800000       1.992471
                          9       3    3fxy2             5.398000       0.000000
                                                         2.078000       0.000000
                                                         0.800000       1.992471
                          9       3    3fxyz             5.398000       0.000000
                                                         2.078000       0.000000
                                                         0.800000       3.451060
                          9       3    3fxz2             5.398000       0.000000
                                                         2.078000       0.000000
                                                         0.800000       1.992471
                          9       3    3fy3              5.398000       0.000000
                                                         2.078000       0.000000
                                                         0.800000       0.891060
                          9       3    3fy2z             5.398000       0.000000
                                                         2.078000       0.000000
                                                         0.800000       1.992471
                          9       3    3fyz2             5.398000       0.000000
                                                         2.078000       0.000000
                                                         0.800000       1.992471
                          9       3    3fz3              5.398000       0.000000
                                                         2.078000       0.000000
                                                         0.800000       0.891060

                         10       1    1hx5              1.326000       1.856140
                         10       1    1hx4y             1.326000       5.568419
                         10       1    1hx4z             1.326000       5.568419
                         10       1    1hx3y2            1.326000       8.505900
                         10       1    1hx3yz            1.326000      14.732651
                         10       1    1hx3z2            1.326000       8.505900
                         10       1    1hx2y3            1.326000       8.505900
                         10       1    1hx2y2z           1.326000      19.019770
                         10       1    1hx2yz2           1.326000      19.019770
                         10       1    1hx2z3            1.326000       8.505900
                         10       1    1hxy4             1.326000       5.568419
                         10       1    1hxy3z            1.326000      14.732651
                         10       1    1hxy2z2           1.326000      19.019770
                         10       1    1hxyz3            1.326000      14.732651
                         10       1    1hxz4             1.326000       5.568419
                         10       1    1hy5              1.326000       1.856140
                         10       1    1hy4z             1.326000       5.568419
                         10       1    1hy3z2            1.326000       8.505900
                         10       1    1hy2z3            1.326000       8.505900
                         10       1    1hyz4             1.326000       5.568419
                         10       1    1hz5              1.326000       1.856140

                         11       1    1gx4              4.338000      62.947963
                                                         1.513000       0.000000
                         11       1    1gx3y             4.338000     166.544656
                                                         1.513000       0.000000
                         11       1    1gx3z             4.338000     166.544656
                                                         1.513000       0.000000
                         11       1    1gx2y2            4.338000     215.008226
                                                         1.513000       0.000000
                         11       1    1gx2yz            4.338000     372.405172
                                                         1.513000       0.000000
                         11       1    1gx2z2            4.338000     215.008226
                                                         1.513000       0.000000
                         11       1    1gxy3             4.338000     166.544656
                                                         1.513000       0.000000
                         11       1    1gxy2z            4.338000     372.405172
                                                         1.513000       0.000000
                         11       1    1gxyz2            4.338000     372.405172
                                                         1.513000       0.000000
                         11       1    1gxz3             4.338000     166.544656
                                                         1.513000       0.000000
                         11       1    1gy4              4.338000      62.947963
                                                         1.513000       0.000000
                         11       1    1gy3z             4.338000     166.544656
                                                         1.513000       0.000000
                         11       1    1gy2z2            4.338000     215.008226
                                                         1.513000       0.000000
                         11       1    1gyz3             4.338000     166.544656
                                                         1.513000       0.000000
                         11       1    1gz4              4.338000      62.947963
                                                         1.513000       0.000000

                         11       2    2gx4              4.338000       0.000000
                                                         1.513000       3.475301
                         11       2    2gx3y             4.338000       0.000000
                                                         1.513000       9.194783
                         11       2    2gx3z             4.338000       0.000000
                                                         1.513000       9.194783
                         11       2    2gx2y2            4.338000       0.000000
                                                         1.513000      11.870414
                         11       2    2gx2yz            4.338000       0.000000
                                                         1.513000      20.560160
                         11       2    2gx2z2            4.338000       0.000000
                                                         1.513000      11.870414
                         11       2    2gxy3             4.338000       0.000000
                                                         1.513000       9.194783
                         11       2    2gxy2z            4.338000       0.000000
                                                         1.513000      20.560160
                         11       2    2gxyz2            4.338000       0.000000
                                                         1.513000      20.560160
                         11       2    2gxz3             4.338000       0.000000
                                                         1.513000       9.194783
                         11       2    2gy4              4.338000       0.000000
                                                         1.513000       3.475301
                         11       2    2gy3z             4.338000       0.000000
                                                         1.513000       9.194783
                         11       2    2gy2z2            4.338000       0.000000
                                                         1.513000      11.870414
                         11       2    2gyz3             4.338000       0.000000
                                                         1.513000       9.194783
                         11       2    2gz4              4.338000       0.000000
                                                         1.513000       3.475301

                         12       1    1hx5              2.995000      26.220070
                         12       1    1hx4y             2.995000      78.660211
                         12       1    1hx4z             2.995000      78.660211
                         12       1    1hx3y2            2.995000     120.155457
                         12       1    1hx3yz            2.995000     208.115357
                         12       1    1hx3z2            2.995000     120.155457
                         12       1    1hx2y3            2.995000     120.155457
                         12       1    1hx2y2z           2.995000     268.675770
                         12       1    1hx2yz2           2.995000     268.675770
                         12       1    1hx2z3            2.995000     120.155457
                         12       1    1hxy4             2.995000      78.660211
                         12       1    1hxy3z            2.995000     208.115357
                         12       1    1hxy2z2           2.995000     268.675770
                         12       1    1hxyz3            2.995000     208.115357
                         12       1    1hxz4             2.995000      78.660211
                         12       1    1hy5              2.995000      26.220070
                         12       1    1hy4z             2.995000      78.660211
                         12       1    1hy3z2            2.995000     120.155457
                         12       1    1hy2z3            2.995000     120.155457
                         12       1    1hyz4             2.995000      78.660211
                         12       1    1hz5              2.995000      26.220070

     RI Auxiliary Basis Set                                    aug-cc-pV5Z-OPTRI

       Number of orbital shell sets:                                          21
       Number of orbital shells:                                              21
       Number of primitive Cartesian functions:                               21
       Number of Cartesian basis functions:                                  173
       Number of spherical basis functions:                                  113
       Norm type:                                                              2

       Normalised Cartesian orbitals:

                        Set   Shell   Orbital            Exponent    Coefficient

                          1       1    1px               0.235390       0.233709
                          1       1    1py               0.235390       0.233709
                          1       1    1pz               0.235390       0.233709

                          2       1    1s                0.347276       0.322416

                          3       1    1px               0.625159       0.792370
                          3       1    1py               0.625159       0.792370
                          3       1    1pz               0.625159       0.792370

                          4       1    1hx5              0.885778       0.500207
                          4       1    1hx4y             0.885778       1.500622
                          4       1    1hx4z             0.885778       1.500622
                          4       1    1hx3y2            0.885778       2.292238
                          4       1    1hx3yz            0.885778       3.970273
                          4       1    1hx3z2            0.885778       2.292238
                          4       1    1hx2y3            0.885778       2.292238
                          4       1    1hx2y2z           0.885778       5.125600
                          4       1    1hx2yz2           0.885778       5.125600
                          4       1    1hx2z3            0.885778       2.292238
                          4       1    1hxy4             0.885778       1.500622
                          4       1    1hxy3z            0.885778       3.970273
                          4       1    1hxy2z2           0.885778       5.125600
                          4       1    1hxyz3            0.885778       3.970273
                          4       1    1hxz4             0.885778       1.500622
                          4       1    1hy5              0.885778       0.500207
                          4       1    1hy4z             0.885778       1.500622
                          4       1    1hy3z2            0.885778       2.292238
                          4       1    1hy2z3            0.885778       2.292238
                          4       1    1hyz4             0.885778       1.500622
                          4       1    1hz5              0.885778       0.500207

                          5       1    1s                0.931595       0.675819

                          6       1    1fx3              1.290173       2.611634
                          6       1    1fx2y             1.290173       5.839791
                          6       1    1fx2z             1.290173       5.839791
                          6       1    1fxy2             1.290173       5.839791
                          6       1    1fxyz             1.290173      10.114815
                          6       1    1fxz2             1.290173       5.839791
                          6       1    1fy3              1.290173       2.611634
                          6       1    1fy2z             1.290173       5.839791
                          6       1    1fyz2             1.290173       5.839791
                          6       1    1fz3              1.290173       2.611634

                          7       1    1px               1.597283       2.559572
                          7       1    1py               1.597283       2.559572
                          7       1    1pz               1.597283       2.559572

                          8       1    1dx2              1.780039       4.515035
                          8       1    1dxy              1.780039       7.820270
                          8       1    1dxz              1.780039       7.820270
                          8       1    1dy2              1.780039       4.515035
                          8       1    1dyz              1.780039       7.820270
                          8       1    1dz2              1.780039       4.515035

                          9       1    1s                2.258258       1.312926

                         10       1    1gx4              2.633026      15.947297
                         10       1    1gx3y             2.633026      42.192582
                         10       1    1gx3z             2.633026      42.192582
                         10       1    1gx2y2            2.633026      54.470389
                         10       1    1gx2yz            2.633026      94.345481
                         10       1    1gx2z2            2.633026      54.470389
                         10       1    1gxy3             2.633026      42.192582
                         10       1    1gxy2z            2.633026      94.345481
                         10       1    1gxyz2            2.633026      94.345481
                         10       1    1gxz3             2.633026      42.192582
                         10       1    1gy4              2.633026      15.947297
                         10       1    1gy3z             2.633026      42.192582
                         10       1    1gy2z2            2.633026      54.470389
                         10       1    1gyz3             2.633026      42.192582
                         10       1    1gz4              2.633026      15.947297

                         11       1    1ix6              3.026480      28.457360
                         11       1    1ix5y             3.026480      94.382384
                         11       1    1ix5z             3.026480      94.382384
                         11       1    1ix4y2            3.026480     163.475084
                         11       1    1ix4yz            3.026480     283.147152
                         11       1    1ix4z2            3.026480     163.475084
                         11       1    1ix3y3            3.026480     193.426328
                         11       1    1ix3y2z           3.026480     432.514419
                         11       1    1ix3yz2           3.026480     432.514419
                         11       1    1ix3z3            3.026480     193.426328
                         11       1    1ix2y4            3.026480     163.475084
                         11       1    1ix2y3z           3.026480     432.514419
                         11       1    1ix2y2z2          3.026480     558.373714
                         11       1    1ix2yz3           3.026480     432.514419
                         11       1    1ix2z4            3.026480     163.475084
                         11       1    1ixy5             3.026480      94.382384
                         11       1    1ixy4z            3.026480     283.147152
                         11       1    1ixy3z2           3.026480     432.514419
                         11       1    1ixy2z3           3.026480     432.514419
                         11       1    1ixyz4            3.026480     283.147152
                         11       1    1ixz5             3.026480      94.382384
                         11       1    1iy6              3.026480      28.457360
                         11       1    1iy5z             3.026480      94.382384
                         11       1    1iy4z2            3.026480     163.475084
                         11       1    1iy3z3            3.026480     193.426328
                         11       1    1iy2z4            3.026480     163.475084
                         11       1    1iyz5             3.026480      94.382384
                         11       1    1iz6              3.026480      28.457360

                         12       1    1fx3              3.200602      20.170920
                         12       1    1fx2y             3.200602      45.103549
                         12       1    1fx2z             3.200602      45.103549
                         12       1    1fxy2             3.200602      45.103549
                         12       1    1fxyz             3.200602      78.121638
                         12       1    1fxz2             3.200602      45.103549
                         12       1    1fy3              3.200602      20.170920
                         12       1    1fy2z             3.200602      45.103549
                         12       1    1fyz2             3.200602      45.103549
                         12       1    1fz3              3.200602      20.170920

                         13       1    1px               3.925907       7.877077
                         13       1    1py               3.925907       7.877077
                         13       1    1pz               3.925907       7.877077

                         14       1    1dx2              4.533842      23.185989
                         14       1    1dxy              4.533842      40.159311
                         14       1    1dxz              4.533842      40.159311
                         14       1    1dy2              4.533842      23.185989
                         14       1    1dyz              4.533842      40.159311
                         14       1    1dz2              4.533842      23.185989

                         15       1    1hx5              5.601843     200.641007
                         15       1    1hx4y             5.601843     601.923020
                         15       1    1hx4z             5.601843     601.923020
                         15       1    1hx3y2            5.601843     919.452601
                         15       1    1hx3yz            5.601843    1592.538620
                         15       1    1hx3z2            5.601843     919.452601
                         15       1    1hx2y3            5.601843     919.452601
                         15       1    1hx2y2z           5.601843    2055.958518
                         15       1    1hx2yz2           5.601843    2055.958518
                         15       1    1hx2z3            5.601843     919.452601
                         15       1    1hxy4             5.601843     601.923020
                         15       1    1hxy3z            5.601843    1592.538620
                         15       1    1hxy2z2           5.601843    2055.958518
                         15       1    1hxyz3            5.601843    1592.538620
                         15       1    1hxz4             5.601843     601.923020
                         15       1    1hy5              5.601843     200.641007
                         15       1    1hy4z             5.601843     601.923020
                         15       1    1hy3z2            5.601843     919.452601
                         15       1    1hy2z3            5.601843     919.452601
                         15       1    1hyz4             5.601843     601.923020
                         15       1    1hz5              5.601843     200.641007

                         16       1    1gx4              8.900924     454.341001
                         16       1    1gx3y             8.900924    1202.073300
                         16       1    1gx3z             8.900924    1202.073300
                         16       1    1gx2y2            8.900924    1551.869957
                         16       1    1gx2yz            8.900924    2687.917612
                         16       1    1gx2z2            8.900924    1551.869957
                         16       1    1gxy3             8.900924    1202.073300
                         16       1    1gxy2z            8.900924    2687.917612
                         16       1    1gxyz2            8.900924    2687.917612
                         16       1    1gxz3             8.900924    1202.073300
                         16       1    1gy4              8.900924     454.341001
                         16       1    1gy3z             8.900924    1202.073300
                         16       1    1gy2z2            8.900924    1551.869957
                         16       1    1gyz3             8.900924    1202.073300
                         16       1    1gz4              8.900924     454.341001

                         17       1    1s               11.109538       4.336927

                         18       1    1px              11.207813      29.230832
                         18       1    1py              11.207813      29.230832
                         18       1    1pz              11.207813      29.230832

                         19       1    1dx2             11.631116     120.572116
                         19       1    1dxy             11.631116     208.837031
                         19       1    1dxz             11.631116     208.837031
                         19       1    1dy2             11.631116     120.572116
                         19       1    1dyz             11.631116     208.837031
                         19       1    1dz2             11.631116     120.572116

                         20       1    1fx3             13.298172     497.148723
                         20       1    1fx2y            13.298172    1111.658339
                         20       1    1fx2z            13.298172    1111.658339
                         20       1    1fxy2            13.298172    1111.658339
                         20       1    1fxyz            13.298172    1925.448723
                         20       1    1fxz2            13.298172    1111.658339
                         20       1    1fy3             13.298172     497.148723
                         20       1    1fy2z            13.298172    1111.658339
                         20       1    1fyz2            13.298172    1111.658339
                         20       1    1fz3             13.298172     497.148723

                         21       1    1dx2             28.699477     585.718479
                         21       1    1dxy             28.699477    1014.494164
                         21       1    1dxz             28.699477    1014.494164
                         21       1    1dy2             28.699477     585.718479
                         21       1    1dyz             28.699477    1014.494164
                         21       1    1dz2             28.699477     585.718479

       Atomic covalent radius [Angstrom]:                                  0.720

       Atomic van der Waals radius [Angstrom]:                             1.470

     The atoms of this atomic kind are PAW atoms (GAPW):
       Hard Gaussian function radius:                                      1.512
       Rho0 radius:                                                        1.512
       Maximum GTO radius used for PAW projector construction:            24.566

     GAPW Soft Basis Set                                        aug-cc-pV5Z_soft

       Number of orbital shell sets:                                          12
       Number of orbital shells:                                              27
       Number of primitive Cartesian functions:                               22
       Number of Cartesian basis functions:                                  182
       Number of spherical basis functions:                                  127
       Norm type:                                                              2

       Normalised Cartesian orbitals:

                        Set   Shell   Orbital            Exponent    Coefficient

                          1       1    1px               0.055000       0.037966
                          1       1    1py               0.055000       0.037966
                          1       1    1pz               0.055000       0.037966

                          2       1    1s                0.080600       0.107811

                          3       1    1px               2.622000       4.755881
                                                         1.057000       0.000000
                                                         0.417600       0.000000
                                                         0.157400       0.000000
                          3       1    1py               2.622000       4.755881
                                                         1.057000       0.000000
                                                         0.417600       0.000000
                                                         0.157400       0.000000
                          3       1    1pz               2.622000       4.755881
                                                         1.057000       0.000000
                                                         0.417600       0.000000
                                                         0.157400       0.000000

                          3       2    2px               2.622000       0.000000
                                                         1.057000       1.527685
                                                         0.417600       0.000000
                                                         0.157400       0.000000
                          3       2    2py               2.622000       0.000000
                                                         1.057000       1.527685
                                                         0.417600       0.000000
                                                         0.157400       0.000000
                          3       2    2pz               2.622000       0.000000
                                                         1.057000       1.527685
                                                         0.417600       0.000000
                                                         0.157400       0.000000

                          3       3    3px               2.622000       1.265350
                                                         1.057000       0.567987
                                                         0.417600       0.159291
                                                         0.157400       0.018158
                          3       3    3py               2.622000       1.265350
                                                         1.057000       0.567987
                                                         0.417600       0.159291
                                                         0.157400       0.018158
                          3       3    3pz               2.622000       1.265350
                                                         1.057000       0.567987
                                                         0.417600       0.159291
                                                         0.157400       0.018158

                          3       4    4px               2.622000       0.000000
                                                         1.057000       0.000000
                                                         0.417600       0.478510
                                                         0.157400       0.000000
                          3       4    4py               2.622000       0.000000
                                                         1.057000       0.000000
                                                         0.417600       0.478510
                                                         0.157400       0.000000
                          3       4    4pz               2.622000       0.000000
                                                         1.057000       0.000000
                                                         0.417600       0.478510
                                                         0.157400       0.000000

                          3       5    5px               2.622000       0.000000
                                                         1.057000       0.000000
                                                         0.417600       0.000000
                                                         0.157400       0.141318
                          3       5    5py               2.622000       0.000000
                                                         1.057000       0.000000
                                                         0.417600       0.000000
                                                         0.157400       0.141318
                          3       5    5pz               2.622000       0.000000
                                                         1.057000       0.000000
                                                         0.417600       0.000000
                                                         0.157400       0.141318

                          4       1    1dx2              0.172000       0.075611
[...]
 -                      DBCSR MESSAGE PASSING PERFORMANCE                      -
 -                                                                             -
 -------------------------------------------------------------------------------
 ROUTINE             CALLS      AVE VOLUME [Bytes]
 MP_Bcast               29                     12.
 MP_Allreduce         7317                      8.
 MP_Alltoall         43012                 170366.
 MP_ISend            30240                 501118.
 MP_IRecv            30240                 496327.
 -------------------------------------------------------------------------------

 -------------------------------------------------------------------------------
 -                                                                             -
 -                                DBM STATISTICS                               -
 -                                                                             -
 -------------------------------------------------------------------------------
    M  x    N  x    K                                          COUNT     PERCENT
 -------------------------------------------------------------------------------

 -------------------------------------------------------------------------------
 -                                                                             -
 -                                GRID STATISTICS                              -
 -                                                                             -
 -------------------------------------------------------------------------------
 LP    KERNEL             BACKEND                              COUNT     PERCENT
 4     collocate ortho    CPU                                4774824       8.06%
 4     integrate ortho    CPU                                4743616       8.01%
 3     collocate ortho    CPU                                4711482       7.95%
 3     integrate ortho    CPU                                4680688       7.90%
 5     collocate ortho    CPU                                4380390       7.39%
 5     integrate ortho    CPU                                4351760       7.35%
 2     collocate ortho    CPU                                4225860       7.13%
 2     integrate ortho    CPU                                4198240       7.09%
 1     collocate ortho    CPU                                3225546       5.44%
 1     integrate ortho    CPU                                3204464       5.41%
 6     collocate ortho    CPU                                3061224       5.17%
 6     integrate ortho    CPU                                3041216       5.13%
 7     collocate ortho    CPU                                1898730       3.21%
 7     integrate ortho    CPU                                1886320       3.18%
 0     collocate ortho    CPU                                1563354       2.64%
 0     integrate ortho    CPU                                1553136       2.62%
 8     collocate ortho    CPU                                1096092       1.85%
 8     integrate ortho    CPU                                1088928       1.84%
 9     collocate ortho    CPU                                 519282       0.88%
 9     integrate ortho    CPU                                 515888       0.87%
 10    collocate ortho    CPU                                 166770       0.28%
 10    integrate ortho    CPU                                 165680       0.28%
 2     collocate general  CPU                                  92720       0.16%
 2     integrate general  CPU                                  92416       0.16%
 0     collocate general  CPU                                    304       0.00%
 0     integrate general  CPU                                    304       0.00%
 -------------------------------------------------------------------------------

 MEMORY| Estimated peak process memory [MiB]                              750900

 -------------------------------------------------------------------------------
 ----                             MULTIGRID INFO                            ----
 -------------------------------------------------------------------------------
 count for grid        1:       18612533          cutoff [a.u.]          250.00
 count for grid        2:        1617227          cutoff [a.u.]           83.33
 count for grid        3:         502784          cutoff [a.u.]           27.78
 count for grid        4:          62818          cutoff [a.u.]            9.26
 total gridlevel count  :       20795362

 -------------------------------------------------------------------------------
 -                                                                             -
 -                         MESSAGE PASSING PERFORMANCE                         -
 -                                                                             -
 -------------------------------------------------------------------------------

 ROUTINE             CALLS      AVE VOLUME [Bytes]
 MP_Group              916
 MP_Bcast            22883                 327288.
 MP_Allreduce        91726                 205573.
 MP_Sync              2765
 MP_Alltoall          8019              166668175.
 MP_SendRecv          9180                 784100.
 MP_ISendRecv        24870                1600207.
 MP_Wait             67323
 MP_comm_split         138
 MP_ISend            36620                4084135.
 MP_IRecv            36960                4046545.
 -------------------------------------------------------------------------------


 -------------------------------------------------------------------------------
 -                                                                             -
 -                           R E F E R E N C E S                               -
 -                                                                             -
 -------------------------------------------------------------------------------
 
 CP2K version 2025.1 (Development Version), the CP2K developers group (2025).
 CP2K is freely available from https://www.cp2k.org/ .
 
 T. D. Kuehne, M. Iannuzzi, M. Del Ben, V. V. Rybkin, P. Seewald, F. Stein, T. 
 Laino, R. Z. Khaliullin, O. Schuett, F. Schiffmann, D. Golze, J. Wilhelm, S. 
 Chulkov, M. H. Bani-Hashemian, V. Weber, U. Borstnik, M. Taillefumier, A. S. 
 Jakobovits, A. Lazzaro, H. Pabst, T. Mueller, R. Schade, M. Guidon, S. 
 Andermatt, N. Holmberg, G. K. Schenter, A. Hehn, A. Bussy, F. Belleflamme, G. 
 Tabacchi, A. Gloess, M. Lass, I. Bethune, C. J. Mundy, C. Plessl, M. Watkins, 
 J. VandeVondele, M. Krack, J. Hutter.
 J. Chem. Phys. 152, 194103 (2020).
 CP2K: An electronic structure and molecular dynamics software package - 
 Quickstep: Efficient and accurate electronic structure calculations.
 https://doi.org/10.1063/5.0007045

 O. Schuett, P. Messmer, J. Hutter, J. VandeVondele.
 Electronic Structure Calculations on Graphics Processing Units, 173-190 (2016).
 GPU-Accelerated Sparse Matrix-Matrix Multiplication for Linear Scaling Density 
 Functional Theory.
 https://doi.org/10.1002/9781118670712.ch8

 J. Hutter, M. Iannuzzi, F. Schiffmann, J. VandeVondele.
 WIREs Comput Mol Sci. 4, 15-25 (2014).
 CP2K: atomistic simulations of condensed matter systems.
 https://doi.org/10.1002/wcms.1159

 U. Borstnik, J. VandeVondele, V. Weber, J. Hutter.
 Parallel Comput. 40, 47-58 (2014).
 Sparse matrix multiplication: The distributed block-compressed sparse row 
 library.
 https://doi.org/10.1016/j.parco.2014.03.012

 M. Guidon, J. Hutter, J. VandeVondele.
 J. Chem. Theory Comput. 5, 3010-3021 (2009).
 Robust Periodic Hartree-Fock Exchange for Large-Scale Simulations Using 
 Gaussian Basis Sets.
 https://doi.org/10.1021/ct900494g

 M. Guidon, F. Schiffmann, J. Hutter, J. VandeVondele.
 J. Chem. Phys. 128, 214104 (2008).
 Ab initio molecular dynamics using hybrid density functionals.
 https://doi.org/10.1063/1.2931945

 L. Genovese, T. Deutsch, S. Goedecker.
 J. Chem. Phys. 127, 054704 (2007).
 Efficient and accurate three-dimensional Poisson solver for surface problems.
 https://doi.org/10.1063/1.2754685

 J. VandeVondele, J. Hutter.
 J. Chem. Phys. 127, 114105 (2007).
 Gaussian basis sets for accurate calculations on molecular systems in gas and 
 condensed phases.
 https://doi.org/10.1063/1.2770708

 L. Genovese, T. Deutsch, A. Neelov, S. Goedecker, G. Beylkin.
 J. Chem. Phys. 125, 074105 (2006).
 Efficient solution of Poisson's equation with free boundary conditions.
 https://doi.org/10.1063/1.2335442

 M. Iannuzzi, T. Chassaing, T. Wallman, J. Hutter.
 CHIMIA 59, 499-503 (2005).
 Ground and excited state density functional calculations with the Gaussian and 
 augmented-plane-wave method.
 https://doi.org/10.2533/000942905777676164

 M. Frigo, S. G. Johnson.
 Proc. IEEE 93, 216-231 (2005).
 The design and implementation of FFTW3.
 https://doi.org/10.1109/JPROC.2004.840301

 R. L. Martin.
 J. Chem. Phys. 118, 4775-4777 (2003).
 Natural transition orbitals.
 https://doi.org/10.1063/1.1558471

 M. Krack, M. Parrinello.
 Phys. Chem. Chem. Phys. 2, 2105-2112 (2000).
 All-electron ab-initio molecular dynamics.
 https://doi.org/10.1039/b001167n

 G. Lippert, J. Hutter, M. Parrinello.
 Theor. Chem. Acc. 103, 124-140 (1999).
 The Gaussian and augmented-plane-wave density functional method for ab initio 
 molecular dynamics simulations.
 https://doi.org/10.1007/s002140050523

 J. P. Perdew, K. Burke, M. Ernzerhof.
 Phys. Rev. Lett. 77, 3865-3868 (1996).
 Generalized gradient approximation made simple.
 https://doi.org/10.1103/PhysRevLett.77.3865


 -------------------------------------------------------------------------------
 -                                                                             -
 -                                T I M I N G                                  -
 -                                                                             -
 -------------------------------------------------------------------------------
 SUBROUTINE                       CALLS  ASD         SELF TIME        TOTAL TIME
                                MAXIMUM       AVERAGE  MAXIMUM  AVERAGE  MAXIMUM
 CP2K                                 1  1.0    33.03    42.15 81330.75 81330.75
 qs_energies                          1  2.0     0.00     0.00 81285.52 81285.53
 integrate_four_center              524  9.8    11.10    12.05 78944.19 78944.50
 integrate_four_center_main         524 10.8   449.97   973.68 77796.42 78262.38
 integrate_four_center_bin        42693 11.8 77346.45 77774.31 77346.45 77774.31
 qs_energies_properties               1  3.0     0.00     0.00 47665.59 47665.60
 tddfpt                               1  4.0     0.00     0.01 47665.59 47665.60
 tddfpt_energies                      1  5.0     0.00     0.00 47664.25 47664.25
 tddfpt_davidson_solver               1  6.0     0.00     0.00 47640.54 47640.54
 tddfpt_compute_Aop_evects           11  7.0     0.00     0.00 47626.90 47626.90
 tddfpt_apply_hfx                    11  8.0     0.01     0.01 46077.94 46077.94
 tddft_hfx_matrix                   440  9.0     0.02     0.02 46061.09 46061.39
 scf_env_do_scf                       1  3.0     0.00     0.00 33609.19 33609.20
 scf_env_do_scf_inner_loop           84  4.0     0.00     0.01 33609.19 33609.20
 qs_ks_update_qs_env                 84  5.0     0.00     0.00 33365.66 33366.06
 rebuild_ks_matrix                   84  6.0     0.00     0.00 33365.56 33365.96
 qs_ks_build_kohn_sham_matrix        84  7.0     0.02     0.02 33365.56 33365.96
 hfx_ks_matrix                       84  8.0     0.00     0.00 32883.16 32883.24
 fhxc_kernel                         11  8.0     0.01     0.01  1544.28  1544.28
 mp_sync                           2765 11.5   989.43  1372.48   989.43  1372.48
 pw_poisson_solve                   304  9.4    44.35    53.34   806.48   857.00
 tddfpt_apply_coulomb               220  9.0     0.00     0.01   709.86   760.26
 fft_wrap_pw1pw2                   6178 11.1     0.13     0.14   479.43   532.08
 ps_wavelet_solve                   304 10.4   449.61   464.49   524.18   526.72
 fft_wrap_pw1pw2_250               4348 12.2    42.89    49.86   464.06   516.71
 fft3d_ps                          6178 13.1   183.17   189.08   361.15   417.06
 prepare_gapw_den                   305  8.7     0.01     0.01   330.85   331.61
 qs_rho_update_rho_low              306  7.9     0.01     0.01   247.70   247.75
 integrate_v_rspace                 304  9.0     0.01     0.01   244.66   245.17
 calculate_rho_elec                 306  8.9     8.96     9.20   240.14   240.19
 mp_alltoall_z22v                  6178 15.1   148.72   206.17   148.72   206.17
 calculate_rho_atom                 915  9.7    92.36   201.06    92.36   201.06
 mp_alltoall_d54                    304 11.4    29.88   199.72    29.88   199.72
 mp_alltoall_d11v                 19296 11.7   128.06   198.77   128.06   198.77
 density_rs2pw                      306  9.9     0.02     0.02   167.87   196.64
 mp_sum_dv                        55267  8.8   115.07   188.89   115.07   188.89
 mp_waitany                       36620 12.8   150.42   186.30   150.42   186.30
 x_to_yz                           3128 13.8    17.83    18.30   128.60   182.53
 transfer_rs2pw                    1530 10.8     0.03     0.04   144.13   172.71
 xc_pw_derive                      1827 11.0     0.01     0.01   170.11   172.65
 gaVxcgb_GC                         912  9.7    63.38   163.62    63.38   163.62
 tddfpt_apply_xc_analytic           220  9.0     1.00     1.36   155.04   155.35
 transfer_rs2pw_250                 612 11.8    14.18    16.35   125.09   154.71
 grid_integrate_task_list           304 10.0    58.57   144.44    58.57   144.44
 rs_gather_matrices                 304 10.0     0.27     0.34    90.17   136.99
 calculate_xc_2nd_deriv_atom        220  9.0     3.53     8.89    50.20   129.16
 calc_screening_functions             1 10.0   109.09   110.37   117.57   118.85
 xc_pw_divergence                   304 10.7     0.01     0.01   114.23   117.51
 grid_collocate_task_list           306  9.9    59.82   112.99    59.82   112.99
 transfer_pw2rs                    1521 10.9     0.03     0.03    95.79    96.89
 potential_pw2rs                    304 10.0     0.33     0.34    95.91    96.08
 gspace_mixing                       83  5.0     2.43     2.50    94.71    94.71
 xc_calc_2nd_deriv_analytical      1540 10.7     6.78     7.28    90.53    91.42
 qs_scf_new_mos                      84  5.0     0.00     0.00    86.65    86.91
 broyden_mixing                      83  6.0    78.64    83.03    83.75    84.01
 integrate_vhg0_rspace              304  9.4    18.00    19.02    82.06    82.72
 eigensolver_symm                    84  6.0     0.01     0.01    81.45    81.52
 cp_fm_syevd                        138  7.2     0.00     0.00    81.31    81.38
 cp_fm_redistribute_end             138  8.2    40.53    80.67    40.61    80.74
 cp_fm_syevd_base                   138  8.2    39.91    79.92    39.91    79.92
 put_rho0_on_grid                   305  9.7     9.04     9.25    76.99    77.75
 transfer_pw2rs_250                 609 11.7    15.86    17.49    73.02    74.99
 mp_sum_d                         17981  7.3    49.57    74.88    49.57    74.88
 qs_vxc_create                       84  8.0     0.00     0.00    68.59    68.63
 xc_vxc_pw_create                    84  9.0     2.72     2.83    68.59    68.63
 sum_up_and_integrate                84  8.0     0.00     0.00    59.32    59.42
 cp2k_distribution_to_z_slices      304 10.4    37.88    46.67    53.60    54.49
 mp_alltoall_d45                    305 11.4    37.69    53.78    37.69    53.78
 yz_to_x                           3050 14.4    11.33    11.77    49.28    53.08
 calculate_rho0_atom                915  9.7    48.88    52.77    48.88    52.77
 calculate_vxc_atom                  84  8.0     0.68     1.65    45.69    45.70
 pw_scatter_p                      3128 12.8    39.02    39.65    39.02    39.65
 mp_waitall_1                    121083 14.0    32.22    38.86    32.22    38.86
 xc_rho_set_and_dset_create          85 10.0     2.30     3.51    32.94    36.21
 mp_sum_dm                        17529 10.1    30.59    33.56    30.59    33.56
 cp_dbcsr_sm_fm_multiply           1366  8.6     0.03     0.03    31.14    31.96
 dbcsr_multiply_generic            1890 10.3     0.09     0.10    27.39    29.59
 cp_dbcsr_sm_fm_multiply_core      1366  9.6     0.00     0.01    24.03    26.19
 mp_isend_dm3                      7324 12.8    17.77    24.32    17.77    24.32
 multiply_cannon                   1890 11.3     0.19     0.20    19.92    23.19
 mp_max_i                           776  5.5    14.80    22.61    14.80    22.61
 multiply_cannon_loop              1890 12.3     0.08     0.08    18.43    21.10
 tddfpt_print_nto_analysis            1  6.0     0.00     0.01    20.50    20.50
 pw_gather_p                       3050 13.4    20.16    20.43    20.16    20.43
 pw_integral_ab_c1d_c1d_gs          304 10.4    15.14    18.03    19.17    19.78
 mp_isend_dv                      45782 13.4    14.57    19.11    14.57    19.11
 cp_fm_geeig                         20  7.0     0.00     0.00    18.82    18.82
 transfer_pw2rs_90                  304 12.0     1.95     2.08    15.82    18.01
 parallel_gemm_fm                  2009  8.3     0.00     0.00    17.26    17.37
 parallel_gemm_fm_gemm             2009  9.3     0.00     0.00    17.25    17.36
 cp_fm_gemm                        2009 10.3    17.25    17.36    17.25    17.36
 Vh_1c_gg_integrals                 304  9.4     5.94    14.65    16.37    17.21
 transfer_rs2pw_90                  306 11.9     1.25     1.55    13.66    15.65
 powell_optimize                5656374 11.0    14.06    14.43    14.06    14.43
 fft_wrap_pw1pw2_90                 610 11.9     0.95     0.98    11.77    13.10
 integrate_four_center_getP         524 10.8     5.40     6.12    12.00    12.35
 pw_copy_to_array                  3050 13.4    10.50    12.30    10.50    12.30
 multiply_cannon_metrocomm3        7560 13.3     0.02     0.02     6.39    12.27
 mp_alltoall_i22                   6026 11.5     5.28    11.43     5.28    11.43
 copy_dbcsr_to_fm                  1474  9.3     0.03     0.03     6.26    11.11
 pw_derive                         2739 11.8    10.96    11.06    10.96    11.06
 scale_and_distribute               608 11.4     7.07    10.61     7.07    10.61
 dbcsr_complete_redistribute       4551 10.5     2.01     2.36     9.50    10.43
 integrate_four_center_dist_KS      524 10.8     4.00     4.21     9.29     9.44
 dbcsr_desymmetrize_deep           1475 10.3     0.15     0.21     4.09     9.06
 copy_fm_to_dbcsr                  3075  9.6     0.02     0.02     8.17     9.01
 multiply_cannon_metrocomm1        7560 13.3     0.02     0.02     4.41     8.77
 multiply_cannon_metrocomm4        5670 13.3     0.02     0.02     3.73     8.75
 xc_functional_eval                1909 10.8     0.00     0.01     6.53     8.55
 pbe_lda_eval                      1909 11.8     6.52     8.54     6.52     8.54
 qs_energies_init_hamiltonians        1  3.0     0.00     0.00     8.17     8.17
 build_core_hamiltonian_matrix        1  4.0     0.00     0.00     8.14     8.14
 -------------------------------------------------------------------------------

 The number of warnings for this run is : 1
 
 -------------------------------------------------------------------------------
  **** **** ******  **  PROGRAM ENDED AT                 2025-05-12 17:24:57.961
 ***** ** ***  *** **   PROGRAM RAN ON                              f01r01c01s12
 **    ****   ******    PROGRAM RAN BY                                   di38fab
 ***** **    ** ** **   PROGRAM PROCESS ID                               1483600
  **** **  *******  **  PROGRAM STOPPED IN /hppfs/scratch/04/di38fab/05_MOL/aUKB
                                           qsEOTmq69kFe5R_nOg/5k_set_final_qzvp/
                                           VENQEL/aug-cc-pV5Z/TDDFT
