SIRIUS 7.5.2, git hash: https://api.github.com/repos/electronic-structure/SIRIUS/git/ref/tags/v7.5.2
 DBCSR| CPU Multiplication driver                                           XSMM (U)
 DBCSR| Multrec recursion limit                                              512 (U)
 DBCSR| Multiplication stack size                                           1000 (D)
 DBCSR| Maximum elements for images                                    UNLIMITED (U)
 DBCSR| Multiplicative factor virtual images                                   1 (U)
 DBCSR| Use multiplication densification                                       T (D)
 DBCSR| Multiplication size stacks                                             3 (U)
 DBCSR| Use memory pool for CPU allocation                                     F (U)
 DBCSR| Number of 3D layers                                               SINGLE (U)
 DBCSR| Use MPI memory allocation                                              F (U)
 DBCSR| Use RMA algorithm                                                      F (U)
 DBCSR| Use Communication thread                                               T (U)
 DBCSR| Communication thread load                                             75 (D)
 DBCSR| MPI: My process id                                                     0
 DBCSR| MPI: Number of processes                                             192
 DBCSR| OMP: Current number of threads                                         4
 DBCSR| OMP: Max number of threads                                             4
 DBCSR| Split modifier for TAS multiplication algorithm                  1.0E+00 (U)


  **** **** ******  **  PROGRAM STARTED AT               2025-03-27 12:52:00.190
 ***** ** ***  *** **   PROGRAM STARTED ON                 n2cn0603.ab2021.local
 **    ****   ******    PROGRAM STARTED BY                              metdyn02
 ***** **    ** ** **   PROGRAM PROCESS ID                               1192614
  **** **  *******  **  PROGRAM STARTED IN /scratch/hpc-prf-metdyn/metdyn02_Remi
                                           /10_MOL/05_MOL/aUKBqsEOTmq69kFe5R_nOg
                                           /5k_set_final_qzvp/CABQAZ/SZVSR/TDDFT
                                           /1e-4

 CP2K| version string:                 CP2K version 2025.1 (Development Version)
 CP2K| source code revision number:                                  git:9754b87
 CP2K| cp2kflags: omp libint fftw3 libxc libgrpp elpa parallel scalapack mpi_f08
 CP2K|             cosma xsmm plumed2 spglib sirius libvori libbqb libvdwxc hdf5
 CP2K| is freely available from                            https://www.cp2k.org/
 CP2K| Program compiled at                          Sun Mar 23 00:44:01 CET 2025
 CP2K| Program compiled on                                              n2login1
 CP2K| Program compiled for                                                local
 CP2K| Data directory path    /opt/software/pc2/EB-SW/software/CP2K/2024.1-foss-
 CP2K| Input file name                                                    GW.inp

 GLOBAL| Force Environment number                                              1
 GLOBAL| Basis set file name            /scratch/hpc-prf-metdyn/metdyn02_Remi/BA
 GLOBAL| Potential file name            /pc2/groups/hpc-prf-metdyn/metdyn02_Remi
 GLOBAL| MM Potential file name                                     MM_POTENTIAL
 GLOBAL| Coordinate file name                                      __STD_INPUT__
 GLOBAL| Method name                                                        CP2K
 GLOBAL| Project name                                                       MoS2
 GLOBAL| Run type                                                         ENERGY
 GLOBAL| FFT library                                                       FFTW3
 GLOBAL| Diagonalization library                                            ELPA
 GLOBAL| DGEMM library                                                      BLAS
 GLOBAL| Minimum number of eigenvectors for ELPA usage                        16
 GLOBAL| Orthonormality check for eigenvectors                          DISABLED
 GLOBAL| Matrix multiplication library                                     COSMA
 GLOBAL| All-to-all communication in single precision                          F
 GLOBAL| FFTs using library dependent lengths                                  F
 GLOBAL| Grid backend                                                       AUTO
 GLOBAL| Global print level                                               MEDIUM
 GLOBAL| MPI I/O enabled                                                       T
 GLOBAL| Total number of message passing processes                           192
 GLOBAL| Number of threads for this process                                    4
 GLOBAL| This output is from process                                           0
 GLOBAL| OpenMP stack size per thread (OMP_STACKSIZE)                    default
 GLOBAL| CPU model name                          AMD EPYC 7763 64-Core Processor
 GLOBAL| CPUID                                                              1002

 MEMORY| system memory details [Kb]
 MEMORY|                        rank 0           min           max       average
 MEMORY| MemTotal            263899260     263899260     263899264     263899263
 MEMORY| MemFree             244493140     241652800     245845124     244320238
 MEMORY| Buffers                 50128         45808        201228         86304
 MEMORY| Cached                5653900       5638536       8298196       6257631
 MEMORY| Slab                  2099628       1608048       2177564       2043140
 MEMORY| SReclaimable           366156        253104        388040        339742
 MEMORY| MemLikelyFree       250563324     250391468     252161704     251003917


 *** Fundamental physical constants (SI units) ***

 *** Literature: B. J. Mohr and B. N. Taylor,
 ***             CODATA recommended values of the fundamental physical
 ***             constants: 2006, Web Version 5.1
 ***             http://physics.nist.gov/constants

 Speed of light in vacuum [m/s]                             2.99792458000000E+08
 Magnetic constant or permeability of vacuum [N/A**2]       1.25663706143592E-06
 Electric constant or permittivity of vacuum [F/m]          8.85418781762039E-12
 Planck constant (h) [J*s]                                  6.62606896000000E-34
 Planck constant (h-bar) [J*s]                              1.05457162825177E-34
 Elementary charge [C]                                      1.60217648700000E-19
 Electron mass [kg]                                         9.10938215000000E-31
 Electron g factor [ ]                                     -2.00231930436220E+00
 Proton mass [kg]                                           1.67262163700000E-27
 Fine-structure constant                                    7.29735253760000E-03
 Rydberg constant [1/m]                                     1.09737315685270E+07
 Avogadro constant [1/mol]                                  6.02214179000000E+23
 Boltzmann constant [J/K]                                   1.38065040000000E-23
 Atomic mass unit [kg]                                      1.66053878200000E-27
 Bohr radius [m]                                            5.29177208590000E-11

 *** Conversion factors ***

 [u] -> [a.u.]                                              1.82288848426455E+03
 [Angstrom] -> [Bohr] = [a.u.]                              1.88972613288564E+00
 [a.u.] = [Bohr] -> [Angstrom]                              5.29177208590000E-01
 [a.u.] -> [s]                                              2.41888432650478E-17
 [a.u.] -> [fs]                                             2.41888432650478E-02
 [a.u.] -> [J]                                              4.35974393937059E-18
 [a.u.] -> [N]                                              8.23872205491840E-08
 [a.u.] -> [K]                                              3.15774647902944E+05
 [a.u.] -> [kJ/mol]                                         2.62549961709828E+03
 [a.u.] -> [kcal/mol]                                       6.27509468713739E+02
 [a.u.] -> [Pa]                                             2.94210107994716E+13
 [a.u.] -> [bar]                                            2.94210107994716E+08
 [a.u.] -> [atm]                                            2.90362800883016E+08
 [a.u.] -> [eV]                                             2.72113838565563E+01
 [a.u.] -> [Hz]                                             6.57968392072181E+15
 [a.u.] -> [1/cm] (wave numbers)                            2.19474631370540E+05
 [a.u./Bohr**2] -> [1/cm]                                   5.14048714338585E+03
 

 CELL_TOP| Volume [angstrom^3]:                                     27000.000000
 CELL_TOP| Vector a [angstrom    30.000     0.000     0.000   |a| =    30.000000
 CELL_TOP| Vector b [angstrom     0.000    30.000     0.000   |b| =    30.000000
 CELL_TOP| Vector c [angstrom     0.000     0.000    30.000   |c| =    30.000000
 CELL_TOP| Angle (b,c), alpha [degree]:                                90.000000
 CELL_TOP| Angle (a,c), beta  [degree]:                                90.000000
 CELL_TOP| Angle (a,b), gamma [degree]:                                90.000000
 CELL_TOP| Numerically orthorhombic:                                         YES
 CELL_TOP| Periodicity                                                      NONE

 GENERATE|  Preliminary Number of Bonds generated:                             0
 GENERATE|  Achieved consistency in connectivity generation.

 CELL| Volume [angstrom^3]:                                         27000.000000
 CELL| Vector a [angstrom]:      30.000     0.000     0.000   |a| =    30.000000
 CELL| Vector b [angstrom]:       0.000    30.000     0.000   |b| =    30.000000
 CELL| Vector c [angstrom]:       0.000     0.000    30.000   |c| =    30.000000
 CELL| Angle (b,c), alpha [degree]:                                    90.000000
 CELL| Angle (a,c), beta  [degree]:                                    90.000000
 CELL| Angle (a,b), gamma [degree]:                                    90.000000
 CELL| Numerically orthorhombic:                                             YES
 CELL| Periodicity                                                          NONE

 CELL_REF| Volume [angstrom^3]:                                     27000.000000
 CELL_REF| Vector a [angstrom    30.000     0.000     0.000   |a| =    30.000000
 CELL_REF| Vector b [angstrom     0.000    30.000     0.000   |b| =    30.000000
 CELL_REF| Vector c [angstrom     0.000     0.000    30.000   |c| =    30.000000
 CELL_REF| Angle (b,c), alpha [degree]:                                90.000000
 CELL_REF| Angle (a,c), beta  [degree]:                                90.000000
 CELL_REF| Angle (a,b), gamma [degree]:                                90.000000
 CELL_REF| Numerically orthorhombic:                                         YES
 CELL_REF| Periodicity                                                      NONE

 *******************************************************************************
 *******************************************************************************
 **                                                                           **
 **     #####                         ##              ##                      **
 **    ##   ##            ##          ##              ##                      **
 **   ##     ##                       ##            ######                    **
 **   ##     ##  ##   ##  ##   #####  ##  ##   ####   ##    #####    #####    **
 **   ##     ##  ##   ##  ##  ##      ## ##   ##      ##   ##   ##  ##   ##   **
 **   ##  ## ##  ##   ##  ##  ##      ####     ###    ##   ######   ######    **
 **    ##  ###   ##   ##  ##  ##      ## ##      ##   ##   ##       ##        **
 **     #######   #####   ##   #####  ##  ##  ####    ##    #####   ##        **
 **           ##                                                    ##        **
 **                                                                           **
 **                                                ... make the atoms dance   **
 **                                                                           **
 **            Copyright (C) by CP2K developers group (2000-2025)             **
 **                      J. Chem. Phys. 152, 194103 (2020)                    **
 **                                                                           **
 *******************************************************************************

 DFT| Spin restricted Kohn-Sham (RKS) calculation                            RKS
 DFT| Multiplicity                                                             1
 DFT| Number of spin states                                                    1
 DFT| Charge                                                                   0
 DFT| Self-interaction correction (SIC)                                       NO
 DFT| Cutoffs: density                                              1.000000E-10
 DFT|          gradient                                             1.000000E-10
 DFT|          tau                                                  1.000000E-10
 DFT|          cutoff_smoothing_range                               0.000000E+00
 DFT| XC density smoothing                                                  NONE
 DFT| XC derivatives                                                          PW

 FUNCTIONAL| PBE:
 FUNCTIONAL| J.P.Perdew, K.Burke, M.Ernzerhof, Phys. Rev. Letter, vol. 77, n 18,
 FUNCTIONAL|  pp. 3865-3868, (1996)sx=0.750sc=1.000{spin unpolarized}           


 QS| Method:                                                                GAPW
 QS| Density plane wave grid type                        NON-SPHERICAL FULLSPACE
 QS| Number of grid levels:                                                    4
 QS| Density cutoff [a.u.]:                                                250.0
 QS| Multi grid cutoff [a.u.]: 1) grid level                               250.0
 QS|                           2) grid level                                83.3
 QS|                           3) grid level                                27.8
 QS|                           4) grid level                                 9.3
 QS| Grid level progression factor:                                          3.0
 QS| Relative density cutoff [a.u.]:                                        50.0
 QS| Interaction thresholds: eps_pgf_orb:                                1.0E-12
 QS|                         eps_filter_matrix:                          0.0E+00
 QS|                         eps_core_charge:                            1.0E-14
 QS|                         eps_rho_gspace:                             1.0E-12
 QS|                         eps_rho_rspace:                             1.0E-12
 QS|                         eps_gvg_rspace:                             1.0E-06
 QS|                         eps_ppl:                                    1.0E-02
 QS|                         eps_ppnl:                                   1.0E-08
 QS| GAPW|      One center basis from orbital basis primitives
 QS| GAPW|                   eps_fit:                                    1.0E-04
 QS| GAPW|                   eps_iso:                                    1.0E-12
 QS| GAPW|                   eps_svd:                                    1.0E-08
 QS| GAPW|                   eps_cpc:                                    1.0E-12
 QS| GAPW|   atom-r-grid: quadrature:                                     GC_LOG
 QS| GAPW|      atom-s-grid:  max l :                                          4
 QS| GAPW|      max_l_rho0 :                                                   2
 QS| GAPW|      At least one kind is NOT PAW, i.e. it has only soft AO 
 QS| GAPW|      The NOT PAW atoms are treated fully GPW


 ATOMIC KIND INFORMATION

  1. Atomic kind: Cl                                    Number of atoms:       2

     Orbital Basis Set                                         aug-SZV-MOLOPT-ae

       Number of orbital shell sets:                                           3
       Number of orbital shells:                                               8
       Number of primitive Cartesian functions:                               19
       Number of Cartesian basis functions:                                   19
       Number of spherical basis functions:                                   18
       Norm type:                                                              2

       Normalised Cartesian orbitals:

                        Set   Shell   Orbital            Exponent    Coefficient

                          1       1    1s                0.077000       0.000000
                                                         0.155732       0.048775
                                                         0.302177       0.213641
                                                         0.610646       0.074372
                                                         1.364210      -0.160589
                                                         3.637791      -0.133295
                                                        13.583529      -0.040055

                          1       2    2s                0.077000       0.113098
                                                         0.155732      -0.001418
                                                         0.302177      -0.032953
                                                         0.610646       0.000940
                                                         1.364210      -0.000650
                                                         3.637791      -0.006480
                                                        13.583529       0.000000

                          1       3    2px               0.077000       0.000000
                                                         0.155732       0.014765
                                                         0.302177       0.156150
                                                         0.610646       0.318942
                                                         1.364210       0.160173
                                                         3.637791      -0.130999
                                                        13.583529      -0.265378
                          1       3    2py               0.077000       0.000000
                                                         0.155732       0.014765
                                                         0.302177       0.156150
                                                         0.610646       0.318942
                                                         1.364210       0.160173
                                                         3.637791      -0.130999
                                                        13.583529      -0.265378
                          1       3    2pz               0.077000       0.000000
                                                         0.155732       0.014765
                                                         0.302177       0.156150
                                                         0.610646       0.318942
                                                         1.364210       0.160173
                                                         3.637791      -0.130999
                                                        13.583529      -0.265378

                          1       4    3px               0.077000       0.044533
                                                         0.155732       0.031887
                                                         0.302177       0.011087
                                                         0.610646      -0.025806
                                                         1.364210       0.119111
                                                         3.637791       0.324938
                                                        13.583529       0.000000
                          1       4    3py               0.077000       0.044533
                                                         0.155732       0.031887
                                                         0.302177       0.011087
                                                         0.610646      -0.025806
                                                         1.364210       0.119111
                                                         3.637791       0.324938
                                                        13.583529       0.000000
                          1       4    3pz               0.077000       0.044533
                                                         0.155732       0.031887
                                                         0.302177       0.011087
                                                         0.610646      -0.025806
                                                         1.364210       0.119111
                                                         3.637791       0.324938
                                                        13.583529       0.000000

                          1       5    3dx2              0.077000       0.003672
                                                         0.155732       0.001893
                                                         0.302177       0.117944
                                                         0.610646       0.097225
                                                         1.364210       0.782555
                                                         3.637791       0.872236
                                                        13.583529       0.000000
                          1       5    3dxy              0.077000       0.006359
                                                         0.155732       0.003279
                                                         0.302177       0.204285
                                                         0.610646       0.168398
                                                         1.364210       1.355425
                                                         3.637791       1.510758
                                                        13.583529       0.000000
                          1       5    3dxz              0.077000       0.006359
                                                         0.155732       0.003279
                                                         0.302177       0.204285
                                                         0.610646       0.168398
                                                         1.364210       1.355425
                                                         3.637791       1.510758
                                                        13.583529       0.000000
                          1       5    3dy2              0.077000       0.003672
                                                         0.155732       0.001893
                                                         0.302177       0.117944
                                                         0.610646       0.097225
                                                         1.364210       0.782555
                                                         3.637791       0.872236
                                                        13.583529       0.000000
                          1       5    3dyz              0.077000       0.006359
                                                         0.155732       0.003279
                                                         0.302177       0.204285
                                                         0.610646       0.168398
                                                         1.364210       1.355425
                                                         3.637791       1.510758
                                                        13.583529       0.000000
                          1       5    3dz2              0.077000       0.003672
                                                         0.155732       0.001893
                                                         0.302177       0.117944
                                                         0.610646       0.097225
                                                         1.364210       0.782555
                                                         3.637791       0.872236
                                                        13.583529       0.000000

                          2       1    1s              403.972966      -0.851102
                                                        79.956793      -0.895515
                                                        24.850512      -0.268003
                                                         9.560888       0.969714
                                                         4.152300       1.233756
                                                         1.903303       0.277989

                          2       2    2px             403.972966       9.705843
                                                        79.956793      12.841416
                                                        24.850512      13.753103
                                                         9.560888      10.017907
                                                         4.152300       3.598052
                                                         1.903303       0.324102
                          2       2    2py             403.972966       9.705843
                                                        79.956793      12.841416
                                                        24.850512      13.753103
                                                         9.560888      10.017907
                                                         4.152300       3.598052
                                                         1.903303       0.324102
                          2       2    2pz             403.972966       9.705843
                                                        79.956793      12.841416
                                                        24.850512      13.753103
                                                         9.560888      10.017907
                                                         4.152300       3.598052
                                                         1.903303       0.324102

                          3       1    1s             6236.545525       4.583362
                                                      1143.463795       6.917755
                                                       319.899964       9.085929
                                                       109.894271       8.964028
                                                        42.675161       4.956187
                                                        17.575988       0.797366

     RI Auxiliary Basis Set             RI_aug-SZV-MOLOPT-ae_N_RI_108_s_p_d_f_g_

       Number of orbital shell sets:                                          22
       Number of orbital shells:                                              22
       Number of primitive Cartesian functions:                               22
       Number of Cartesian basis functions:                                  163
       Number of spherical basis functions:                                  108
       Norm type:                                                              2

       Normalised Cartesian orbitals:

                        Set   Shell   Orbital            Exponent    Coefficient

                          1       1   18gx4              0.269782       0.030319
                          1       1   18gx3y             0.269782       0.080218
                          1       1   18gx3z             0.269782       0.080218
                          1       1   18gx2y2            0.269782       0.103560
                          1       1   18gx2yz            0.269782       0.179372
                          1       1   18gx2z2            0.269782       0.103560
                          1       1   18gxy3             0.269782       0.080218
                          1       1   18gxy2z            0.269782       0.179372
                          1       1   18gxyz2            0.269782       0.179372
                          1       1   18gxz3             0.269782       0.080218
                          1       1   18gy4              0.269782       0.030319
                          1       1   18gy3z             0.269782       0.080218
                          1       1   18gy2z2            0.269782       0.103560
                          1       1   18gyz3             0.269782       0.080218
                          1       1   18gz4              0.269782       0.030319

                          2       1    1s                0.344038       0.320158

                          3       1    7px               0.383694       0.430449
                          3       1    7py               0.383694       0.430449
                          3       1    7pz               0.383694       0.430449

                          4       1   15fx3              0.493125       0.299991
                          4       1   15fx2y             0.493125       0.670800
                          4       1   15fx2z             0.493125       0.670800
                          4       1   15fxy2             0.493125       0.670800
                          4       1   15fxyz             0.493125       1.161860
                          4       1   15fxz2             0.493125       0.670800
                          4       1   15fy3              0.493125       0.299991
                          4       1   15fy2z             0.493125       0.670800
                          4       1   15fyz2             0.493125       0.670800
                          4       1   15fz3              0.493125       0.299991

                          5       1   12dx2              0.705322       0.893485
                          5       1   12dxy              0.705322       1.547562
                          5       1   12dxz              0.705322       1.547562
                          5       1   12dy2              0.705322       0.893485
                          5       1   12dyz              0.705322       1.547562
                          5       1   12dz2              0.705322       0.893485

                          6       1    8px               0.868328       1.194798
                          6       1    8py               0.868328       1.194798
                          6       1    8pz               0.868328       1.194798

                          7       1    2s                0.901504       0.659380

                          8       1   19gx4              1.038000       1.233044
                          8       1   19gx3y             1.038000       3.262328
                          8       1   19gx3z             1.038000       3.262328
                          8       1   19gx2y2            1.038000       4.211647
                          8       1   19gx2yz            1.038000       7.294787
                          8       1   19gx2z2            1.038000       4.211647
                          8       1   19gxy3             1.038000       3.262328
                          8       1   19gxy2z            1.038000       7.294787
                          8       1   19gxyz2            1.038000       7.294787
                          8       1   19gxz3             1.038000       3.262328
                          8       1   19gy4              1.038000       1.233044
                          8       1   19gy3z             1.038000       3.262328
                          8       1   19gy2z2            1.038000       4.211647
                          8       1   19gyz3             1.038000       3.262328
                          8       1   19gz4              1.038000       1.233044

                          9       1   21hx5              1.308459       1.777518
                          9       1   21hx4y             1.308459       5.332555
                          9       1   21hx4z             1.308459       5.332555
                          9       1   21hx3y2            1.308459       8.145612
                          9       1   21hx3yz            1.308459      14.108614
                          9       1   21hx3z2            1.308459       8.145612
                          9       1   21hx2y3            1.308459       8.145612
                          9       1   21hx2y2z           1.308459      18.214142
                          9       1   21hx2yz2           1.308459      18.214142
                          9       1   21hx2z3            1.308459       8.145612
                          9       1   21hxy4             1.308459       5.332555
                          9       1   21hxy3z            1.308459      14.108614
                          9       1   21hxy2z2           1.308459      18.214142
                          9       1   21hxyz3            1.308459      14.108614
                          9       1   21hxz4             1.308459       5.332555
                          9       1   21hy5              1.308459       1.777518
                          9       1   21hy4z             1.308459       5.332555
                          9       1   21hy3z2            1.308459       8.145612
                          9       1   21hy2z3            1.308459       8.145612
                          9       1   21hyz4             1.308459       5.332555
                          9       1   21hz5              1.308459       1.777518

                         10       1   13dx2              1.597768       3.737302
                         10       1   13dxy              1.597768       6.473198
                         10       1   13dxz              1.597768       6.473198
                         10       1   13dy2              1.597768       3.737302
                         10       1   13dyz              1.597768       6.473198
                         10       1   13dz2              1.597768       3.737302

                         11       1   16fx3              1.685175       4.763278
                         11       1   16fx2y             1.685175      10.651013
                         11       1   16fx2z             1.685175      10.651013
                         11       1   16fxy2             1.685175      10.651013
                         11       1   16fxyz             1.685175      18.448095
                         11       1   16fxz2             1.685175      10.651013
                         11       1   16fy3              1.685175       4.763278
                         11       1   16fy2z             1.685175      10.651013
                         11       1   16fyz2             1.685175      10.651013
                         11       1   16fz3              1.685175       4.763278

                         12       1   22ix6              1.929011       5.256337
                         12       1   22ix5y             1.929011      17.433298
                         12       1   22ix5z             1.929011      17.433298
                         12       1   22ix4y2            1.929011      30.195358
                         12       1   22ix4yz            1.929011      52.299895
                         12       1   22ix4z2            1.929011      30.195358
                         12       1   22ix3y3            1.929011      35.727630
                         12       1   22ix3y2z           1.929011      79.889409
                         12       1   22ix3yz2           1.929011      79.889409
                         12       1   22ix3z3            1.929011      35.727630
                         12       1   22ix2y4            1.929011      30.195358
                         12       1   22ix2y3z           1.929011      79.889409
                         12       1   22ix2y2z2          1.929011     103.136783
                         12       1   22ix2yz3           1.929011      79.889409
                         12       1   22ix2z4            1.929011      30.195358
                         12       1   22ixy5             1.929011      17.433298
                         12       1   22ixy4z            1.929011      52.299895
                         12       1   22ixy3z2           1.929011      79.889409
                         12       1   22ixy2z3           1.929011      79.889409
                         12       1   22ixyz4            1.929011      52.299895
                         12       1   22ixz5             1.929011      17.433298
                         12       1   22iy6              1.929011       5.256337
                         12       1   22iy5z             1.929011      17.433298
                         12       1   22iy4z2            1.929011      30.195358
                         12       1   22iy3z3            1.929011      35.727630
                         12       1   22iy2z4            1.929011      30.195358
                         12       1   22iyz5             1.929011      17.433298
                         12       1   22iz6              1.929011       5.256337

                         13       1   20gx4              2.212940       9.887848
                         13       1   20gx3y             2.212940      26.160787
                         13       1   20gx3z             2.212940      26.160787
                         13       1   20gx2y2            2.212940      33.773431
                         13       1   20gx2yz            2.212940      58.497298
                         13       1   20gx2z2            2.212940      33.773431
                         13       1   20gxy3             2.212940      26.160787
                         13       1   20gxy2z            2.212940      58.497298
                         13       1   20gxyz2            2.212940      58.497298
                         13       1   20gxz3             2.212940      26.160787
                         13       1   20gy4              2.212940       9.887848
                         13       1   20gy3z             2.212940      26.160787
                         13       1   20gy2z2            2.212940      33.773431
                         13       1   20gyz3             2.212940      26.160787
                         13       1   20gz4              2.212940       9.887848

                         14       1    3s                4.140728       2.068796

                         15       1    9px               5.511469      12.037166
                         15       1    9py               5.511469      12.037166
                         15       1    9pz               5.511469      12.037166

                         16       1   17fx3              7.171013     123.882668
                         16       1   17fx2y             7.171013     277.010067
                         16       1   17fx2z             7.171013     277.010067
                         16       1   17fxy2             7.171013     277.010067
                         16       1   17fxyz             7.171013     479.795510
                         16       1   17fxz2             7.171013     277.010067
                         16       1   17fy3              7.171013     123.882668
                         16       1   17fy2z             7.171013     277.010067
                         16       1   17fyz2             7.171013     277.010067
                         16       1   17fz3              7.171013     123.882668

                         17       1    4s               19.248309       6.549445

                         18       1   14dx2             26.089955     495.721527
                         18       1   14dxy             26.089955     858.614872
                         18       1   14dxz             26.089955     858.614872
                         18       1   14dy2             26.089955     495.721527
                         18       1   14dyz             26.089955     858.614872
                         18       1   14dz2             26.089955     495.721527

                         19       1   10px              28.120856      92.305112
                         19       1   10py              28.120856      92.305112
                         19       1   10pz              28.120856      92.305112

                         20       1    5s               90.370000      20.889512

                         21       1   11px             134.857526     655.064516
                         21       1   11py             134.857526     655.064516
                         21       1   11pz             134.857526     655.064516

                         22       1    6s              425.158245      66.730295

       Atomic covalent radius [Angstrom]:                                  0.990

       Atomic van der Waals radius [Angstrom]:                             1.750

     The atoms of this atomic kind are PAW atoms (GAPW):
       Hard Gaussian function radius:                                      1.512
       Rho0 radius:                                                        1.512
       Maximum GTO radius used for PAW projector construction:            24.566

     GAPW Soft Basis Set                                  aug-SZV-MOLOPT-ae_soft

       Number of orbital shell sets:                                           3
       Number of orbital shells:                                               8
       Number of primitive Cartesian functions:                                8
       Number of Cartesian basis functions:                                   19
       Number of spherical basis functions:                                   18
       Norm type:                                                              2

       Normalised Cartesian orbitals:

                        Set   Shell   Orbital            Exponent    Coefficient

                          1       1    1s                0.077000       0.000000
                                                         0.155732       0.048775
                                                         0.302177       0.213641
                                                         0.610646       0.074372
                                                         1.364210      -0.160589
                                                         3.637791      -0.133295

                          1       2    2s                0.077000       0.113098
                                                         0.155732      -0.001418
                                                         0.302177      -0.032953
                                                         0.610646       0.000940
                                                         1.364210      -0.000650
                                                         3.637791      -0.006480

                          1       3    2px               0.077000       0.000000
                                                         0.155732       0.014765
                                                         0.302177       0.156150
                                                         0.610646       0.318942
                                                         1.364210       0.160173
                                                         3.637791      -0.130999
                          1       3    2py               0.077000       0.000000
                                                         0.155732       0.014765
                                                         0.302177       0.156150
                                                         0.610646       0.318942
                                                         1.364210       0.160173
                                                         3.637791      -0.130999
                          1       3    2pz               0.077000       0.000000
                                                         0.155732       0.014765
                                                         0.302177       0.156150
                                                         0.610646       0.318942
                                                         1.364210       0.160173
                                                         3.637791      -0.130999

                          1       4    3px               0.077000       0.044533
                                                         0.155732       0.031887
                                                         0.302177       0.011087
                                                         0.610646      -0.025806
                                                         1.364210       0.119111
                                                         3.637791       0.324938
                          1       4    3py               0.077000       0.044533
                                                         0.155732       0.031887
                                                         0.302177       0.011087
                                                         0.610646      -0.025806
                                                         1.364210       0.119111
                                                         3.637791       0.324938
                          1       4    3pz               0.077000       0.044533
                                                         0.155732       0.031887
                                                         0.302177       0.011087
                                                         0.610646      -0.025806
                                                         1.364210       0.119111
                                                         3.637791       0.324938

                          1       5    3dx2              0.077000       0.003672
                                                         0.155732       0.001893
                                                         0.302177       0.117944
                                                         0.610646       0.097225
                                                         1.364210       0.782555
                                                         3.637791       0.872236
                          1       5    3dxy              0.077000       0.006359
                                                         0.155732       0.003279
                                                         0.302177       0.204285
                                                         0.610646       0.168398
                                                         1.364210       1.355425
                                                         3.637791       1.510758
                          1       5    3dxz              0.077000       0.006359
                                                         0.155732       0.003279
                                                         0.302177       0.204285
                                                         0.610646       0.168398
                                                         1.364210       1.355425
                                                         3.637791       1.510758
                          1       5    3dy2              0.077000       0.003672
                                                         0.155732       0.001893
                                                         0.302177       0.117944
                                                         0.610646       0.097225
                                                         1.364210       0.782555
                                                         3.637791       0.872236
                          1       5    3dyz              0.077000       0.006359
                                                         0.155732       0.003279
                                                         0.302177       0.204285
                                                         0.610646       0.168398
                                                         1.364210       1.355425
                                                         3.637791       1.510758
                          1       5    3dz2              0.077000       0.003672
                                                         0.155732       0.001893
                                                         0.302177       0.117944
                                                         0.610646       0.097225
                                                         1.364210       0.782555
                                                         3.637791       0.872236

                          2       1    1s                4.152300       0.000000
                                                         1.903303       0.277989

                          2       2    2px               4.152300       3.598052
                                                         1.903303       0.324102
                          2       2    2py               4.152300       3.598052
                                                         1.903303       0.324102
                          2       2    2pz               4.152300       3.598052
                                                         1.903303       0.324102

                          3       1    1s         

     AE Potential information for                                            ALL

       Description:                                       All-electron potential
                                          Krack, Parrinello, PCCP 2, 2105 (2000)

       Gaussian exponent of the core charge distribution:               2.974420
       Electronic configuration (s p d ...):                           6  11   0

  2. Atomic kind: N                                     Number of atoms:       3

     Orbital Basis Set                                      aug-SZV-MOLOPT-ae-SR

       Number of orbital shell sets:                                           2
       Number of orbital shells:                                               6
       Number of primitive Cartesian functions:                                7
       Number of Cartesian basis functions:                                   15
       Number of spherical basis functions:                                   14
       Norm type:                                                              2

       Normalised Cartesian orbitals:

                        Set   Shell   Orbital            Exponent    Coefficient

                          1       1    1s                0.112012       0.000000
                                                         0.285714       0.194997
                                                         0.878497       0.258372
                                                         3.780456      -0.193164

                          1       2    2s                0.112012       0.083551
                                                         0.285714      -0.189186
                                                         0.878497      -0.469875
                                                         3.780456      -0.002085

                          1       3    2px               0.112012       0.000000
                                                         0.285714       0.116706
                                                         0.878497       0.736704
                                                         3.780456       1.171553
                          1       3    2py               0.112012       0.000000
                                                         0.285714       0.116706
                                                         0.878497       0.736704
                                                         3.780456       1.171553
                          1       3    2pz               0.112012       0.000000
                                                         0.285714       0.116706
                                                         0.878497       0.736704
                                                         3.780456       1.171553

                          1       4    3px               0.112012       0.141957
                                                         0.285714      -0.286713
                                                         0.878497       0.074784
                                                         3.780456       0.008085
                          1       4    3py               0.112012       0.141957
                                                         0.285714      -0.286713
                                                         0.878497       0.074784
                                                         3.780456       0.008085
                          1       4    3pz               0.112012       0.141957
                                                         0.285714      -0.286713
                                                         0.878497       0.074784
                                                         3.780456       0.008085

                          1       5    3dx2              0.112012      -0.000364
                                                         0.285714       0.186009
                                                         0.878497      -0.044751
                                                         3.780456       1.815169
                          1       5    3dxy              0.112012      -0.000630
                                                         0.285714       0.322177
                                                         0.878497      -0.077512
                                                         3.780456       3.143965
                          1       5    3dxz              0.112012      -0.000630
                                                         0.285714       0.322177
                                                         0.878497      -0.077512
                                                         3.780456       3.143965
                          1       5    3dy2              0.112012      -0.000364
                                                         0.285714       0.186009
                                                         0.878497      -0.044751
                                                         3.780456       1.815169
                          1       5    3dyz              0.112012      -0.000630
                                                         0.285714       0.322177
                                                         0.878497      -0.077512
                                                         3.780456       3.143965
                          1       5    3dz2              0.112012      -0.000364
                                                         0.285714       0.186009
                                                         0.878497      -0.044751
                                                         3.780456       1.815169

                          2       1    1s               99.106169       3.454881
                                                        18.052312       3.341410
                                                         4.885660       1.041372

     RI Auxiliary Basis Set             RI_aug-SZV-MOLOPT-ae-SR_N_RI_036_s_p_d_f

       Number of orbital shell sets:                                          12
       Number of orbital shells:                                              12
       Number of primitive Cartesian functions:                               12
       Number of Cartesian basis functions:                                   42
       Number of spherical basis functions:                                   36
       Norm type:                                                              2

       Normalised Cartesian orbitals:

                        Set   Shell   Orbital            Exponent    Coefficient

                          1       1    1s                0.362114       0.332693

                          2       1    6px               0.499696       0.598857
                          2       1    6py               0.499696       0.598857
                          2       1    6pz               0.499696       0.598857

                          3       1    9dx2              0.588659       0.651135
                          3       1    9dxy              0.588659       1.127800
                          3       1    9dxz              0.588659       1.127800
                          3       1    9dy2              0.588659       0.651135
                          3       1    9dyz              0.588659       1.127800
                          3       1    9dz2              0.588659       0.651135

                          4       1    2s                0.631634       0.504963

                          5       1   12fx3              0.736605       0.740002
                          5       1   12fx2y             0.736605       1.654695
                          5       1   12fx2z             0.736605       1.654695
                          5       1   12fxy2             0.736605       1.654695
                          5       1   12fxyz             0.736605       2.866016
                          5       1   12fxz2             0.736605       1.654695
                          5       1   12fy3              0.736605       0.740002
                          5       1   12fy2z             0.736605       1.654695
                          5       1   12fyz2             0.736605       1.654695
                          5       1   12fz3              0.736605       0.740002

                          6       1    7px               0.883396       1.220771
                          6       1    7py               0.883396       1.220771
                          6       1    7pz               0.883396       1.220771

                          7       1   10dx2              1.153946       2.114628
                          7       1   10dxy              1.153946       3.662643
                          7       1   10dxz              1.153946       3.662643
                          7       1   10dy2              1.153946       2.114628
                          7       1   10dyz              1.153946       3.662643
                          7       1   10dz2              1.153946       2.114628

                          8       1    3s                2.978947       1.616059

                          9       1    8px               4.407746       9.103549
                          9       1    8py               4.407746       9.103549
                          9       1    8pz               4.407746       9.103549

                         10       1   11dx2              5.691883      34.522914
                         10       1   11dxy              5.691883      59.795442
                         10       1   11dxz              5.691883      59.795442
                         10       1   11dy2              5.691883      34.522914
                         10       1   11dyz              5.691883      59.795442
                         10       1   11dz2              5.691883      34.522914

                         11       1    4s               18.342052       6.316784

                         12       1    5s              106.308958      23.595951

       Atomic covalent radius [Angstrom]:                                  0.750

       Atomic van der Waals radius [Angstrom]:                             1.550

     The atoms of this atomic kind are PAW atoms (GAPW):
       Hard Gaussian function radius:                                      1.512
       Rho0 radius:                                                        1.512
       Maximum GTO radius used for PAW projector construction:            24.566

     GAPW Soft Basis Set                               aug-SZV-MOLOPT-ae-SR_soft

       Number of orbital shell sets:                                           2
       Number of orbital shells:                                               6
       Number of primitive Cartesian functions:                                4
       Number of Cartesian basis functions:                                   15
       Number of spherical basis functions:                                   14
       Norm type:                                                              2

       Normalised Cartesian orbitals:

                        Set   Shell   Orbital            Exponent    Coefficient

                          1       1    1s                0.112012       0.000000
                                                         0.285714       0.194997
                                                         0.878497       0.258372
                                                         3.780456      -0.193164

                          1       2    2s                0.112012       0.083551
                                                         0.285714      -0.189186
                                                         0.878497      -0.469875
                                                         3.780456      -0.002085

                          1       3    2px               0.112012       0.000000
                                                         0.285714       0.116706
                                                         0.878497       0.736704
                                                         3.780456       1.171553
                          1       3    2py               0.112012       0.000000
                                                         0.285714       0.116706
                                                         0.878497       0.736704
                                                         3.780456       1.171553
                          1       3    2pz               0.112012       0.000000
                                                         0.285714       0.116706
                                                         0.878497       0.736704
                                                         3.780456       1.171553

                          1       4    3px               0.112012       0.141957
                                                         0.285714      -0.286713
                                                         0.878497       0.074784
                                                         3.780456       0.008085
                          1       4    3py               0.112012       0.141957
                                                         0.285714      -0.286713
                                                         0.878497       0.074784
                                                         3.780456       0.008085
                          1       4    3pz               0.112012       0.141957
                                                         0.285714      -0.286713
                                                         0.878497       0.074784
                                                         3.780456       0.008085

                          1       5    3dx2              0.112012      -0.000364
                                                         0.285714       0.186009
                                                         0.878497      -0.044751
                                                         3.780456       1.815169
                          1       5    3dxy              0.112012      -0.000630
                                                         0.285714       0.322177
                                                         0.878497      -0.077512
                                                         3.780456       3.143965
                          1       5    3dxz              0.112012      -0.000630
                                                         0.285714       0.322177
                                                         0.878497      -0.077512
                                                         3.780456       3.143965
                          1       5    3dy2              0.112012      -0.000364
                                                         0.285714       0.186009
                                                         0.878497      -0.044751
                                                         3.780456       1.815169
                          1       5    3dyz              0.112012      -0.000630
                                                         0.285714       0.322177
                                                         0.878497      -0.077512
                                                         3.780456       3.143965
                          1       5    3dz2              0.112012      -0.000364
                                                         0.285714       0.186009
                                                         0.878497      -0.044751
                                                         3.780456       1.815169

                          2       1    1s         

     AE Potential information for                                            ALL

       Description:                                       All-electron potential
                                          Krack, Parrinello, PCCP 2, 2105 (2000)

       Gaussian exponent of the core charge distribution:               5.979100
       Electronic configuration (s p d ...):                           4   3   0

  3. Atomic kind: H                                     Number of atoms:       9

     Orbital Basis Set                                      aug-SZV-MOLOPT-ae-SR

       Number of orbital shell sets:                                           1
       Number of orbital shells:                                               4
       Number of primitive Cartesian functions:                                4
       Number of Cartesian basis functions:                                    6
       Number of spherical basis functions:                                    6
       Norm type:                                                              2

       Normalised Cartesian orbitals:

                        Set   Shell   Orbital            Exponent    Coefficient

                          1       1    2s                0.065428       0.000000
                                                         0.168855       0.083474
                                                         0.623914       0.267839
                                                         3.425251       0.276934

                          1       2    3s                0.065428      -0.066952
                                                         0.168855       0.261968
                                                         0.623914       0.081548
                                                         3.425251      -0.022414

                          1       3    4s                0.065428       0.165615
                                                         0.168855      -0.226449
                                                         0.623914      -0.005802
                                                         3.425251       0.005451

                          1       4    3px               0.065428       0.053063
                                                         0.168855      -0.030502
                                                         0.623914       0.062721
                                                         3.425251       0.019012
                          1       4    3py               0.065428       0.053063
                                                         0.168855      -0.030502
                                                         0.623914       0.062721
                                                         3.425251       0.019012
                          1       4    3pz               0.065428       0.053063
                                                         0.168855      -0.030502
                                                         0.623914       0.062721
                                                         3.425251       0.019012

     RI Auxiliary Basis Set             RI_aug-SZV-MOLOPT-ae-SR_N_RI_011_s_p_d_f

       Number of orbital shell sets:                                           7
       Number of orbital shells:                                               7
       Number of primitive Cartesian functions:                                7
       Number of Cartesian basis functions:                                   11
       Number of spherical basis functions:                                   11
       Norm type:                                                              2

       Normalised Cartesian orbitals:

                        Set   Shell   Orbital            Exponent    Coefficient

                          1       1    1s                0.220060       0.228990

                          2       1    6px               0.249217       0.250993
                          2       1    6py               0.249217       0.250993
                          2       1    6pz               0.249217       0.250993

                          3       1    2s                0.439991       0.385028

                          4       1    3s                1.250226       0.842658

                          5       1    7px               1.527347       2.420262
                          5       1    7py               1.527347       2.420262
                          5       1    7pz               1.527347       2.420262

                          6       1    4s                3.629850       1.874246

                          7       1    5s                7.032687       3.077875

       Atomic covalent radius [Angstrom]:                                  0.320

       Atomic van der Waals radius [Angstrom]:                             1.090

     AE Potential information for                                            ALL

       Description:                                       All-electron potential
                                          Krack, Parrinello, PCCP 2, 2105 (2000)

       Gaussian exponent of the core charge distribution:              12.500000
       Electronic configuration (s p d ...):                           1   0   0

  4. Atomic kind: C                                     Number of atoms:       6

     Orbital Basis Set                                      aug-SZV-MOLOPT-ae-SR

       Number of orbital shell sets:                                           2
       Number of orbital shells:                                               6
       Number of primitive Cartesian functions:                                7
       Number of Cartesian basis functions:                                   15
       Number of spherical basis functions:                                   14
       Norm type:                                                              2

       Normalised Cartesian orbitals:

                        Set   Shell   Orbital            Exponent    Coefficient

                          1       1    2s                0.114559       0.000000
                                                         0.222290       0.161536
                                                         0.683483       0.214036
                                                         2.941249      -0.160017

                          1       2    3s                0.114559       0.078076
                                                         0.222290       0.130402
                                                         0.683483      -0.084834
                                                         2.941249       0.041379

                          1       3    3px               0.114559       0.000000
                                                         0.222290       0.085276
                                                         0.683483       0.538304
                                                         2.941249       0.856045
                          1       3    3py               0.114559       0.000000
                                                         0.222290       0.085276
                                                         0.683483       0.538304
                                                         2.941249       0.856045
                          1       3    3pz               0.114559       0.000000
                                                         0.222290       0.085276
                                                         0.683483       0.538304
                                                         2.941249       0.856045

                          1       4    4px               0.114559       0.224492
                                                         0.222290      -0.546182
                                                         0.683483       0.918493
                                                         2.941249      -0.348342
                          1       4    4py               0.114559       0.224492
                                                         0.222290      -0.546182
                                                         0.683483       0.918493
                                                         2.941249      -0.348342
                          1       4    4pz               0.114559       0.224492
                                                         0.222290      -0.546182
                                                         0.683483       0.918493
                                                         2.941249      -0.348342

                          1       5    4dx2              0.114559       0.004023
                                                         0.222290       0.096934
                                                         0.683483       0.116751
                                                         2.941249       0.357653
                          1       5    4dxy              0.114559       0.006968
                                                         0.222290       0.167895
                                                         0.683483       0.202218
                                                         2.941249       0.619473
                          1       5    4dxz              0.114559       0.006968
                                                         0.222290       0.167895
                                                         0.683483       0.202218
                                                         2.941249       0.619473
                          1       5    4dy2              0.114559       0.004023
                                                         0.222290       0.096934
                                                         0.683483       0.116751
                                                         2.941249       0.357653
                          1       5    4dyz              0.114559       0.006968
                                                         0.222290       0.167895
                                                         0.683483       0.202218
                                                         2.941249       0.619473
                          1       5    4dz2              0.114559       0.004023
                                                         0.222290       0.096934
                                                         0.683483       0.116751
                                                         2.941249       0.357653

                          2       1    1s               71.616837       2.707814
                                                        13.045096       2.618880
                                                         3.530512       0.816191

     RI Auxiliary Basis Set             RI_aug-SZV-MOLOPT-ae-SR_N_RI_045_s_p_d_f

       Number of orbital shell sets:                                          15
       Number of orbital shells:                                              15
       Number of primitive Cartesian functions:                               15
       Number of Cartesian basis functions:                                   53
       Number of spherical basis functions:                                   45
       Norm type:                                                              2

       Normalised Cartesian orbitals:

                        Set   Shell   Orbital            Exponent    Coefficient

                          1       1    1s                0.335626       0.314269

                          2       1    7px               0.430431       0.496958
                          2       1    7py               0.430431       0.496958
                          2       1    7pz               0.430431       0.496958

                          3       1   12dx2              0.522083       0.527781
                          3       1   12dxy              0.522083       0.914144
                          3       1   12dxz              0.522083       0.914144
                          3       1   12dy2              0.522083       0.527781
                          3       1   12dyz              0.522083       0.914144
                          3       1   12dz2              0.522083       0.527781

                          4       1    8px               0.557902       0.687287
                          4       1    8py               0.557902       0.687287
                          4       1    8pz               0.557902       0.687287

                          5       1   14fx3              0.588350       0.446308
                          5       1   14fx2y             0.588350       0.997974
                          5       1   14fx2z             0.588350       0.997974
                          5       1   14fxy2             0.588350       0.997974
                          5       1   14fxyz             0.588350       1.728542
                          5       1   14fxz2             0.588350       0.997974
                          5       1   14fy3              0.588350       0.446308
                          5       1   14fy2z             0.588350       0.997974
                          5       1   14fyz2             0.588350       0.997974
                          5       1   14fz3              0.588350       0.446308

                          6       1    2s                1.012193       0.719213

                          7       1    9px               1.595955       2.556913
                          7       1    9py               1.595955       2.556913
                          7       1    9pz               1.595955       2.556913

                          8       1   15fx3              2.519735      11.776133
                          8       1   15fx2y             2.519735      26.332235
                          8       1   15fx2z             2.519735      26.332235
                          8       1   15fxy2             2.519735      26.332235
                          8       1   15fxyz             2.519735      45.608768
                          8       1   15fxz2             2.519735      26.332235
                          8       1   15fy3              2.519735      11.776133
                          8       1   15fy2z             2.519735      26.332235
                          8       1   15fyz2             2.519735      26.332235
                          8       1   15fz3              2.519735      11.776133

[...]
 -------------------------------------------------------------------------------
 SUBROUTINE                       CALLS  ASD         SELF TIME        TOTAL TIME
                                MAXIMUM       AVERAGE  MAXIMUM  AVERAGE  MAXIMUM
 CP2K                                 1  1.0    0.252    0.286  382.292  382.296
 qs_energies                          1  2.0    0.003    0.006  381.662  381.665
 qs_energies_properties               1  3.0    0.000    0.000  277.300  277.304
 tddfpt                               1  4.0    0.001    0.005  277.300  277.304
 tddfpt_energies                      1  5.0    0.002    0.012  277.260  277.262
 tddfpt_davidson_solver               1  6.0    0.001    0.002  275.442  275.444
 tddfpt_compute_Aop_evects           10  7.0    0.000    0.000  273.326  273.328
 fhxc_kernel                         10  8.0    0.010    0.017  244.021  244.023
 fft_wrap_pw1pw2                   5422 11.1    0.109    0.137  141.828  149.590
 fft_wrap_pw1pw2_250               3814 12.2    3.058    3.913  133.718  146.351
 fft3d_ps                          5422 13.1   19.067   26.740  129.698  136.595
 mp_alltoall_z22v                  5422 15.1  104.453  110.971  104.453  110.971
 scf_env_do_scf                       1  3.0    0.001    0.001  103.288  103.289
 scf_env_do_scf_inner_loop           67  4.0    0.002    0.004  103.287  103.289
 tddfpt_apply_coulomb               200  9.0    0.003    0.004   78.133   80.657
 pw_poisson_solve                   267  9.5    1.206    1.678   77.049   79.574
 qs_rho_update_rho_low              269  8.0    0.003    0.003   78.425   78.436
 calculate_rho_elec                 269  9.0    0.353    0.500   77.228   77.234
 qs_ks_update_qs_env                 67  5.0    0.000    0.001   75.057   75.070
 rebuild_ks_matrix                   67  6.0    0.000    0.000   75.049   75.062
 qs_ks_build_kohn_sham_matrix        67  7.0    0.011    0.015   75.049   75.062
 yz_to_x                           2143 14.6    1.881    2.153   53.378   59.237
 x_to_yz                           2207 13.8    2.464    4.162   55.261   57.858
 xc_pw_derive                      1605 11.0    0.013    0.015   55.041   57.249
 tddfpt_apply_xc_analytic           200  9.0    0.318    0.453   50.135   52.191
 integrate_v_rspace                 267  9.0    0.007    0.009   48.349   49.773
 density_rs2pw                      269 10.0    0.011    0.013   46.186   48.872
 potential_pw2rs                    267 10.0    0.027    0.035   46.309   46.542
 transfer_pw2rs                    1336 10.9    0.025    0.033   42.733   43.953
 ps_wavelet_solve                   267 10.5   16.107   22.096   39.410   42.366
 xc_pw_divergence                   267 10.7    0.006    0.006   35.977   36.735
 mp_waitany                       88012 12.9   31.016   36.165   31.016   36.165
 integrate_four_center              467  9.9   15.574   29.112   34.100   34.156
 grid_collocate_task_list           269 10.0   28.160   30.910   28.160   30.910
 transfer_rs2pw                    1346 10.9    0.034    0.057   28.378   29.778
 xc_calc_2nd_deriv_analytical      1000 10.1    1.429    1.746   28.964   29.586
 tddfpt_apply_hfx                    10  8.0    0.002    0.002   28.850   28.850
 mp_sum_d                          5866  7.7   10.867   28.125   10.867   28.125
 prepare_gapw_den                   268  8.7    0.004    0.004   24.269   26.595
 tddft_hfx_matrix                   400  9.0    0.004    0.007   26.248   26.299
 transfer_pw2rs_250                 535 11.7    4.383    4.711   24.604   26.264
 mp_sync                           2461 11.5   14.714   25.648   14.714   25.648
 mp_alltoall_d54                    267 11.5   11.619   24.885   11.619   24.885
 put_rho0_on_grid                   268  9.7    0.376    0.582   21.336   23.668
 qs_vxc_create                       67  8.0    0.001    0.002   19.311   19.311
 xc_vxc_pw_create                    67  9.0    0.142    0.180   19.310   19.310
 transfer_rs2pw_250                 539 11.8    4.747    5.135   17.216   18.703
 mp_isend_dm3                     10732 12.9   10.108   17.406   10.108   17.406
 integrate_vhg0_rspace              267  9.5    0.240    0.320   16.518   17.166
 fft_wrap_pw1pw2_90                 536 12.0    0.105    0.171    6.569   16.386
 mp_alltoall_d45                    268 11.5   13.452   16.249   13.452   16.249
 transfer_pw2rs_90                  267 12.0    0.751    0.910   10.163   14.104
 mp_alltoall_d11v                 17432 11.7    9.992   13.785    9.992   13.785
 mp_waitall_1                    534418 13.3   10.461   13.672   10.461   13.672
 sum_up_and_integrate                67  8.0    0.001    0.004   10.790   11.121
 xc_rho_set_and_dset_create          68 10.0    0.167    0.188    9.207   10.321
 transfer_pw2rs_30                  267 12.0    1.174    1.337    6.910    9.408
 cp2k_distribution_to_z_slices      267 10.5    1.108    1.305    7.401    8.622
 Vh_1c_gg_integrals                 267  9.5    0.029    0.526    2.404    7.889
 hfx_ks_matrix                       67  8.0    0.002    0.004    7.861    7.882
 pw_integral_ab_c1d_c1d_gs          267 10.5    0.733    0.860    2.939    6.692
 transfer_rs2pw_90                  269 12.0    1.009    1.111    6.257    6.650
 gspace_mixing                       66  5.0    0.086    0.122    6.119    6.121
 mp_sum_dm                         8959 10.1    4.402    5.472    4.402    5.472
 rs_grid_zero                      1339 11.9    4.182    4.505    4.182    4.505
 pw_derive                         2406 11.8    4.028    4.387    4.028    4.387
 gaVxcgb_GC                         534  9.7    0.067    4.318    0.067    4.318
 calculate_xc_2nd_deriv_atom        200  9.0    0.068    0.643    0.162    4.222
 transfer_rs2pw_30                  269 12.0    1.508    1.677    3.771    4.078
 pw_copy                           3610 11.0    3.390    3.855    3.390    3.855
 pw_gather_p                       2681 13.4    2.897    3.619    2.897    3.619
 cp_dbcsr_sm_fm_multiply           1246  8.6    0.014    0.017    3.435    3.510
 mp_sendrecv_dv                  102758 13.0    2.916    3.306    2.916    3.306
 pw_scatter_p                      2741 12.8    2.888    3.251    2.888    3.251
 grid_integrate_task_list           267 10.0    0.206    3.230    0.206    3.230
 rs_gather_matrices                 267 10.0    0.005    0.032    1.825    3.198
 update_ks_atom                     267  8.7    0.059    0.108    1.501    3.060
 mp_bcast_dm                       5874  9.7    1.442    3.026    1.442    3.026
 pw_copy_to_array                  2681 13.4    1.955    2.863    1.955    2.863
 mp_max_i                           762  5.1    1.200    2.790    1.200    2.790
 broyden_mixing                      66  6.0    2.676    2.708    2.763    2.776
 calculate_rho_atom                 804  9.7    0.926    2.706    0.926    2.706
 parallel_gemm_fm                  1820  8.3    0.001    0.002    2.573    2.649
 parallel_gemm_fm_cosma            1820  9.3    2.572    2.647    2.572    2.647
 pw_poisson_set                     268 10.5    0.005    0.006    2.451    2.523
 dbcsr_multiply_generic            1713 10.3    0.043    0.066    2.353    2.440
 mp_sum_dv                        27446  8.9    2.174    2.307    2.174    2.307
 integrate_four_center_main         467 10.9    0.044    0.073    1.708    2.233
 pw_poisson_rebuild                 267 10.5    0.000    0.000    2.163    2.193
 ps_wavelet_create                    1 10.0    0.000    0.000    2.163    2.193
 RS_z_slice_distribution              1 11.0    0.193    0.307    2.163    2.193
 integrate_four_center_bin        30359 11.9    1.664    2.173    1.664    2.173
 dbcsr_complete_redistribute       4118 10.5    0.102    0.163    1.820    2.017
 pw_axpy                           2945 10.8    1.567    1.862    1.567    1.862
 xc_functional_eval                1136 10.9    0.001    0.004    1.109    1.774
 pbe_lda_eval                      1136 11.9    1.108    1.772    1.108    1.772
 pw_zero                           3008 10.6    1.485    1.751    1.485    1.751
 cp_dbcsr_sm_fm_multiply_core      1246  9.6    0.002    0.002    1.626    1.709
 pw_copy_from_array                2741 12.8    1.099    1.449    1.099    1.449
 copy_fm_to_dbcsr                  2781  9.6    0.007    0.008    1.176    1.385
 mp_alltoall_i22                   5454 11.5    1.201    1.316    1.201    1.316
 calculate_vxc_atom                  67  8.0    0.026    0.113    1.271    1.273
 fft_wrap_pw1pw2_30                 536 12.0    0.014    0.017    1.023    1.247
 transfer_rs2pw_10                  269 12.0    0.447    0.536    1.100    1.206
 calculate_rho_atom_coeff           269  9.0    0.094    0.168    1.194    1.203
 qs_scf_new_mos                      67  5.0    0.001    0.003    1.148    1.165
 mp_alltoall_z11v                  1072 15.0    0.924    1.130    0.924    1.130
 tddfpt_print_nto_analysis            1  6.0    0.003    0.004    1.107    1.107
 transfer_pw2rs_10                  267 12.0    0.310    0.367    1.031    1.102
 copy_dbcsr_to_fm                  1335  9.4    0.010    0.011    1.010    1.077
 cp_fm_diag_elpa                    119  7.2    0.000    0.000    1.027    1.037
 cp_fm_diag_elpa_base               119  8.2    0.995    1.006    1.010    1.012
 mp_rank_compare                   5422 14.1    0.776    1.001    0.776    1.001
 cp_dbcsr_plus_fm_fm_t              267  8.5    0.002    0.002    0.928    0.948
 multiply_cannon                   1713 11.3    0.105    0.119    0.841    0.931
 calc_screening_functions             1 10.0    0.430    0.481    0.846    0.902
 eigensolver_symm                    67  6.0    0.005    0.006    0.892    0.897
 prepare_dr1dr                     1000 11.1    0.612    0.817    0.612    0.817
 mp_sum_l                          6505 10.6    0.736    0.815    0.736    0.815
 tddfpt_orthonormalize_psi1_psi      11  6.9    0.013    0.013    0.804    0.805
 mp_irecv_dm3                     10732 12.9    0.294    0.804    0.294    0.804
 powell_optimize                 506171 11.0    0.723    0.771    0.723    0.771
 tddfpt_compute_residual_vects        9  7.0    0.000    0.001    0.761    0.762
 make_m2s                          3426 11.3    0.030    0.032    0.738    0.761
 offload_free_buffer                275 10.3    0.534    0.691    0.534    0.691
 make_images                       3426 12.3    0.090    0.159    0.665    0.683
 multiply_cannon_loop              1713 12.3    0.107    0.124    0.555    0.660
 yz_to_xz                           534 14.0    0.036    0.051    0.472    0.626
 xz_to_yz                           538 14.0    0.029    0.045    0.518    0.616
 cp_fm_geeig                         20  7.0    0.001    0.001    0.588    0.590
 calc_pair_dist_radii                 1 10.0    0.243    0.272    0.549    0.572
 qs_energies_init_hamiltonians        1  3.0    0.002    0.006    0.567    0.568
 fft_wrap_pw1pw2_10                 536 12.0    0.004    0.005    0.409    0.533
 make_images_sizes                 3426 13.3    0.002    0.003    0.442    0.461
 mp_alltoall_i44                   3426 14.3    0.440    0.459    0.440    0.459
 tddfpt_apply_energy_diff            10  8.0    0.001    0.001    0.455    0.455
 integrate_four_center_getP         467 10.9    0.076    0.088    0.438    0.454
 mp_isendrecv_dv                 280388 12.3    0.271    0.449    0.271    0.449
 cp_fm_trace_a1b1t1_aa            20310  8.0    0.035    0.038    0.422    0.432
 build_core_hamiltonian_matrix        1  4.0    0.001    0.005    0.428    0.430
 overlap_condnum                      1  5.0    0.000    0.003    0.415    0.429
 tddfpt_construct_ground_state_       1  6.0    0.000    0.000    0.415    0.423
 init_scf_run                         1  3.0    0.003    0.008    0.420    0.421
 mp_isend_dv                     160750 13.6    0.188    0.409    0.188    0.409
 scf_env_initial_rho_setup            1  4.0    0.001    0.003    0.392    0.392
 integrate_four_center_dist_KS      467 10.9    0.074    0.082    0.358    0.363
 calculate_rho0_atom               1072  9.7    0.329    0.345    0.329    0.345
 arnoldi_conjugate_gradient           5  6.0    0.007    0.009    0.321    0.321
 dbcsr_desymmetrize_deep           1336 10.4    0.019    0.023    0.269    0.316
 tddfpt_orthogonalize_psi1_psi0      11  6.9    0.000    0.000    0.297    0.311
 scale_and_distribute               534 11.5    0.202    0.303    0.202    0.303
 xc_2nd_deriv_of_r                  800 10.0    0.001    0.038    0.009    0.295
 multiply_cannon_metrocomm3       41112 13.3    0.057    0.061    0.170    0.292
 tddfpt_is_nonorthogonal_psi1_p       9  7.0    0.000    0.000    0.253    0.253
 mp_alltoall_i11v                 13690 11.5    0.107    0.247    0.107    0.247
 mp_cart_sub                       2674 11.4    0.243    0.245    0.243    0.245
 dbcsr_finalize                   11329 11.4    0.021    0.032    0.127    0.206
 mp_cart_create                    2141 10.8    0.181    0.194    0.183    0.196
 calculate_dm_sparse                 67  6.0    0.000    0.000    0.179    0.194
 dbcsr_sym_matrix_vector_mult      2175  7.0    0.016    0.017    0.177    0.191
 rs_grid_create                     273 10.4    0.001    0.002    0.027    0.180
 create_qs_kind_set                   1  2.0    0.000    0.001    0.168    0.180
 read_qs_kind                         4  3.0    0.063    0.086    0.168    0.180
 offload_create_buffer              275 11.4    0.025    0.178    0.025    0.178
 create_kernel_env                    1  6.0    0.000    0.000    0.150    0.167
 xc_prep_2nd_deriv                    1  7.0    0.000    0.000    0.150    0.167
 cube_transpose_2                   538 14.0    0.010    0.011    0.098    0.162
 mp_irecv_dv                     157860 13.6    0.095    0.162    0.095    0.162
 pw_scale                           668  9.5    0.112    0.162    0.112    0.162
 cp_fm_triangular_invert             20  8.0    0.159    0.160    0.159    0.160
 dbcsr_merge_all                   9412 12.4    0.058    0.129    0.083    0.153
 mp_allgather_i34                  1713 12.3    0.128    0.152    0.128    0.152
 multiply_cannon_metrocomm4       39399 13.3    0.059    0.067    0.110    0.147
 cube_transpose_1                   534 14.0    0.009    0.011    0.080    0.146
 qs_init_subsys                       1  2.0    0.013    0.033    0.144    0.145
 qs_env_setup                         1  3.0    0.001    0.002    0.127    0.141
 qs_env_rebuild_pw_env                2  3.5    0.000    0.000    0.126    0.140
 pw_env_rebuild                       1  5.0    0.002    0.007    0.126    0.140
 qs_env_update_s_mstruct              1  4.0    0.000    0.002    0.131    0.133
 cp_fm_cholesky_decompose            20  8.0    0.123    0.126    0.123    0.126
 multiply_cannon_metrocomm2       35973 13.3    0.053    0.061    0.088    0.125
 pw_grid_setup                        4  6.0    0.000    0.001    0.107    0.123
 pw_grid_setup_internal               4  7.0    0.001    0.002    0.107    0.123
 dbcsr_create_new                 39981 11.4    0.073    0.097    0.097    0.121
 parser_read_line                 25247  4.0    0.004    0.004    0.106    0.120
 calculate_rho_core                   1  5.0    0.004    0.010    0.112    0.119
 parser_read_line_low                39  5.0    0.003    0.023    0.102    0.116
 broadcast_input_information         39  6.0    0.011    0.012    0.099    0.114
 multiply_cannon_metrocomm1       41112 13.3    0.022    0.023    0.050    0.110
 integrate_four_center_load         467 10.9    0.001    0.003    0.075    0.109
 hfx_load_balance                     1 11.0    0.000    0.002    0.074    0.108
 rs_scatter_matrices                269 10.0    0.002    0.004    0.008    0.101
 multiply_cannon_multrec          41112 13.3    0.026    0.092    0.030    0.096
 hfx_load_balance_range               1 12.0    0.000    0.000    0.059    0.093
 dbcsr_rep_row_to_rep_col_vec      2175  8.0    0.005    0.006    0.037    0.090
 make_images_data                  3426 13.3    0.022    0.028    0.061    0.089
 cp_fm_write_unformatted             44  7.5    0.084    0.085    0.084    0.085
 dbcsr_col_vec_to_rep_row          2175  8.0    0.007    0.008    0.063    0.084
 scf_post_calculation_gpw             1  3.0    0.000    0.000    0.082    0.083
 mp_bcast_i_src                     156  7.0    0.067    0.083    0.067    0.083
 write_available_results              1  4.0    0.001    0.006    0.081    0.081
 write_mo_free_results                1  5.0    0.005    0.011    0.080    0.081
 dbcsr_add_d                       3312  7.0    0.002    0.002    0.014    0.078
 dbcsr_add_anytype                 3312  8.0    0.002    0.016    0.012    0.077
 write_mo_set_to_restart             67  5.0    0.001    0.039    0.040    0.075
 vxc_of_r_new                       268  9.0    0.000    0.006    0.002    0.073
 mp_bcast_b_src                     186  8.1    0.059    0.067    0.059    0.067
 mp_sum_iv                          488  7.1    0.054    0.064    0.054    0.064
 hybrid_alltoall_any               4762 13.5    0.023    0.028    0.040    0.063
 tddfpt_compute_ritz_vects           10  7.0    0.004    0.005    0.061    0.062
 tddfpt_write_restart                 2  6.5    0.000    0.034    0.046    0.058
 copy_fm_to_dbcsr_bc               2781 10.6    0.015    0.017    0.051    0.058
 cp_fm_triangular_multiply           60  8.0    0.056    0.057    0.056    0.057
 external_control                    67  5.0    0.000    0.054    0.056    0.056
 cp_fm_power                          1  6.0    0.000    0.000    0.054    0.054
 dbcsr_iterator_start             54655 10.7    0.035    0.040    0.044    0.054
 mp_bcast_am_src                     39  7.0    0.019    0.049    0.020    0.050
 pw_grid_sort                         4  8.0    0.035    0.036    0.048    0.050
 dbcsr_copy                       12889  8.6    0.018    0.025    0.041    0.047
 dbcsr_special_finalize            6852 13.3    0.010    0.010    0.034    0.043
 qs_create_task_list                  1  5.0    0.001    0.008    0.018    0.041
 generate_qs_task_list                1  6.0    0.000    0.001    0.017    0.041
 distribute_tasks                     1  7.0    0.000    0.000    0.016    0.041
 cp_fm_symm                          67  7.0    0.038    0.040    0.038    0.040
 load_balance_distributed             2  8.0    0.000    0.000    0.015    0.040
 get_current_loads                   12  9.0    0.000    0.000    0.015    0.040
 dbcsr_work_create                17600 12.4    0.020    0.027    0.030    0.040
 mp_cart_rank                    205472 11.0    0.034    0.040    0.034    0.040
 mp_alltoall_l                       13  9.9    0.014    0.040    0.014    0.040
 compute_load_list                    4  9.0    0.000    0.000    0.014    0.039
 mp_bcast_dv                       2178  9.0    0.025    0.039    0.025    0.039
 dbcsr_gershgorin_norm                1  6.0    0.000    0.001    0.026    0.039
 write_mo_set_low                     4  6.0    0.000    0.000    0.039    0.039
 -------------------------------------------------------------------------------

 The number of warnings for this run is : 1
 
 -------------------------------------------------------------------------------
  **** **** ******  **  PROGRAM ENDED AT                 2025-03-27 12:58:27.090
 ***** ** ***  *** **   PROGRAM RAN ON                     n2cn0603.ab2021.local
 **    ****   ******    PROGRAM RAN BY                                  metdyn02
 ***** **    ** ** **   PROGRAM PROCESS ID                               1192614
  **** **  *******  **  PROGRAM STOPPED IN /scratch/hpc-prf-metdyn/metdyn02_Remi
                                           /10_MOL/05_MOL/aUKBqsEOTmq69kFe5R_nOg
                                           /5k_set_final_qzvp/CABQAZ/SZVSR/TDDFT
                                           /1e-4
