 DBCSR| CPU Multiplication driver                                           XSMM (U)
 DBCSR| Multrec recursion limit                                              512 (U)
 DBCSR| Multiplication stack size                                           1000 (D)
 DBCSR| Maximum elements for images                                    UNLIMITED (U)
 DBCSR| Multiplicative factor virtual images                                   1 (U)
 DBCSR| Use multiplication densification                                       T (D)
 DBCSR| Multiplication size stacks                                             3 (U)
 DBCSR| Use memory pool for CPU allocation                                     F (U)
 DBCSR| Number of 3D layers                                               SINGLE (U)
 DBCSR| Use MPI memory allocation                                              F (U)
 DBCSR| Use RMA algorithm                                                      F (U)
 DBCSR| Use Communication thread                                               T (U)
 DBCSR| Communication thread load                                             60 (D)
 DBCSR| MPI: My process id                                                     0
 DBCSR| MPI: Number of processes                                              80
 DBCSR| OMP: Current number of threads                                         8
 DBCSR| OMP: Max number of threads                                             8
 DBCSR| Split modifier for TAS multiplication algorithm                  1.0E+00 (U)


  **** **** ******  **  PROGRAM STARTED AT               2025-05-29 22:03:47.533
 ***** ** ***  *** **   PROGRAM STARTED ON                 n2cn0177.ab2021.local
 **    ****   ******    PROGRAM STARTED BY                              metdyn02
 ***** **    ** ** **   PROGRAM PROCESS ID                               1253697
  **** **  *******  **  PROGRAM STARTED IN /scratch/hpc-prf-metdyn/metdyn02_Remi
                                           /10_MOL/05_MOL_low_scal/05_MOL/aUKBqs
                                           EOTmq69kFe5R_nOg/5k_set_final_qzvp/TR
                                           IRED/SZV/1e-2/5.0

 CP2K| version string:                 CP2K version 2025.1 (Development Version)
 CP2K| source code revision number:                                  git:32ddf85
 CP2K| cp2kflags: omp libint fftw3 libxc libgrpp elpa parallel scalapack mpi_f08
 CP2K|             cosma xsmm plumed2 spglib libvori libbqb libvdwxc hdf5
 CP2K| is freely available from                            https://www.cp2k.org/
 CP2K| Program compiled at                         Mon May 19 11:32:37 CEST 2025
 CP2K| Program compiled on                                              n2login1
 CP2K| Program compiled for                                                local
 CP2K| Data directory path    /opt/software/pc2/EB-SW/software/CP2K/2024.1-foss-
 CP2K| Input file name                                                    GW.inp

 GLOBAL| Force Environment number                                              1
 GLOBAL| Basis set file name            /scratch/hpc-prf-metdyn/metdyn02_Remi/BA
 GLOBAL| Potential file name            /pc2/groups/hpc-prf-metdyn/metdyn02_Remi
 GLOBAL| MM Potential file name                                     MM_POTENTIAL
 GLOBAL| Coordinate file name                                      __STD_INPUT__
 GLOBAL| Method name                                                        CP2K
 GLOBAL| Project name                                                       MoS2
 GLOBAL| Run type                                                         ENERGY
 GLOBAL| FFT library                                                       FFTW3
 GLOBAL| Diagonalization library                                            ELPA
 GLOBAL| Cholesky decomposition library                                ScaLAPACK
 GLOBAL| DGEMM library                                                      BLAS
 GLOBAL| Minimum number of eigenvectors for ELPA usage                        16
 GLOBAL| Orthonormality check for eigenvectors                          DISABLED
 GLOBAL| Matrix multiplication library                                     COSMA
 GLOBAL| All-to-all communication in single precision                          F
 GLOBAL| FFTs using library dependent lengths                                  F
 GLOBAL| Grid backend                                                       AUTO
 GLOBAL| Global print level                                               MEDIUM
 GLOBAL| MPI I/O enabled                                                       T
 GLOBAL| Total number of message passing processes                            80
 GLOBAL| Number of threads for this process                                    8
 GLOBAL| This output is from process                                           0
 GLOBAL| OpenMP stack size per thread (OMP_STACKSIZE)                    default
 GLOBAL| CPU model name                          AMD EPYC 7763 64-Core Processor
 GLOBAL| CPUID                                                              1002

 MEMORY| system memory details [Kb]
 MEMORY|                        rank 0           min           max       average
 MEMORY| MemTotal            263897592     263897548     263899980     263897707
 MEMORY| MemFree             251403780     244541516     253561140     249688383
 MEMORY| Buffers                 15428         15428        133440         60760
 MEMORY| Cached                7581568       6064804      14202216       9283985
 MEMORY| Slab                  1854684       1237952       2311752       1730661
 MEMORY| SReclaimable           631076        215524        923572        442435
 MEMORY| MemLikelyFree       259631852     259121272     260027728     259475564


 *** Fundamental physical constants (SI units) ***

 *** Literature: B. J. Mohr and B. N. Taylor,
 ***             CODATA recommended values of the fundamental physical
 ***             constants: 2006, Web Version 5.1
 ***             http://physics.nist.gov/constants

 Speed of light in vacuum [m/s]                             2.99792458000000E+08
 Magnetic constant or permeability of vacuum [N/A**2]       1.25663706143592E-06
 Electric constant or permittivity of vacuum [F/m]          8.85418781762039E-12
 Planck constant (h) [J*s]                                  6.62606896000000E-34
 Planck constant (h-bar) [J*s]                              1.05457162825177E-34
 Elementary charge [C]                                      1.60217648700000E-19
 Electron mass [kg]                                         9.10938215000000E-31
 Electron g factor [ ]                                     -2.00231930436220E+00
 Proton mass [kg]                                           1.67262163700000E-27
 Fine-structure constant                                    7.29735253760000E-03
 Rydberg constant [1/m]                                     1.09737315685270E+07
 Avogadro constant [1/mol]                                  6.02214179000000E+23
 Boltzmann constant [J/K]                                   1.38065040000000E-23
 Atomic mass unit [kg]                                      1.66053878200000E-27
 Bohr radius [m]                                            5.29177208590000E-11

 *** Conversion factors ***

 [u] -> [a.u.]                                              1.82288848426455E+03
 [Angstrom] -> [Bohr] = [a.u.]                              1.88972613288564E+00
 [a.u.] = [Bohr] -> [Angstrom]                              5.29177208590000E-01
 [a.u.] -> [s]                                              2.41888432650478E-17
 [a.u.] -> [fs]                                             2.41888432650478E-02
 [a.u.] -> [J]                                              4.35974393937059E-18
 [a.u.] -> [N]                                              8.23872205491840E-08
 [a.u.] -> [K]                                              3.15774647902944E+05
 [a.u.] -> [kJ/mol]                                         2.62549961709828E+03
 [a.u.] -> [kcal/mol]                                       6.27509468713739E+02
 [a.u.] -> [Pa]                                             2.94210107994716E+13
 [a.u.] -> [bar]                                            2.94210107994716E+08
 [a.u.] -> [atm]                                            2.90362800883016E+08
 [a.u.] -> [eV]                                             2.72113838565563E+01
 [a.u.] -> [Hz]                                             6.57968392072181E+15
 [a.u.] -> [1/cm] (wave numbers)                            2.19474631370540E+05
 [a.u./Bohr**2] -> [1/cm]                                   5.14048714338585E+03
 

 CELL_TOP| Volume [angstrom^3]:                                     27000.000000
 CELL_TOP| Vector a [angstrom    30.000     0.000     0.000   |a| =    30.000000
 CELL_TOP| Vector b [angstrom     0.000    30.000     0.000   |b| =    30.000000
 CELL_TOP| Vector c [angstrom     0.000     0.000    30.000   |c| =    30.000000
 CELL_TOP| Angle (b,c), alpha [degree]:                                90.000000
 CELL_TOP| Angle (a,c), beta  [degree]:                                90.000000
 CELL_TOP| Angle (a,b), gamma [degree]:                                90.000000
 CELL_TOP| Numerically orthorhombic:                                         YES
 CELL_TOP| Periodicity                                                      NONE

 GENERATE|  Preliminary Number of Bonds generated:                             0
 GENERATE|  Achieved consistency in connectivity generation.

 CELL| Volume [angstrom^3]:                                         27000.000000
 CELL| Vector a [angstrom]:      30.000     0.000     0.000   |a| =    30.000000
 CELL| Vector b [angstrom]:       0.000    30.000     0.000   |b| =    30.000000
 CELL| Vector c [angstrom]:       0.000     0.000    30.000   |c| =    30.000000
 CELL| Angle (b,c), alpha [degree]:                                    90.000000
 CELL| Angle (a,c), beta  [degree]:                                    90.000000
 CELL| Angle (a,b), gamma [degree]:                                    90.000000
 CELL| Numerically orthorhombic:                                             YES
 CELL| Periodicity                                                          NONE

 CELL_REF| Volume [angstrom^3]:                                     27000.000000
 CELL_REF| Vector a [angstrom    30.000     0.000     0.000   |a| =    30.000000
 CELL_REF| Vector b [angstrom     0.000    30.000     0.000   |b| =    30.000000
 CELL_REF| Vector c [angstrom     0.000     0.000    30.000   |c| =    30.000000
 CELL_REF| Angle (b,c), alpha [degree]:                                90.000000
 CELL_REF| Angle (a,c), beta  [degree]:                                90.000000
 CELL_REF| Angle (a,b), gamma [degree]:                                90.000000
 CELL_REF| Numerically orthorhombic:                                         YES
 CELL_REF| Periodicity                                                      NONE

 *******************************************************************************
 *******************************************************************************
 **                                                                           **
 **     #####                         ##              ##                      **
 **    ##   ##            ##          ##              ##                      **
 **   ##     ##                       ##            ######                    **
 **   ##     ##  ##   ##  ##   #####  ##  ##   ####   ##    #####    #####    **
 **   ##     ##  ##   ##  ##  ##      ## ##   ##      ##   ##   ##  ##   ##   **
 **   ##  ## ##  ##   ##  ##  ##      ####     ###    ##   ######   ######    **
 **    ##  ###   ##   ##  ##  ##      ## ##      ##   ##   ##       ##        **
 **     #######   #####   ##   #####  ##  ##  ####    ##    #####   ##        **
 **           ##                                                    ##        **
 **                                                                           **
 **                                                ... make the atoms dance   **
 **                                                                           **
 **            Copyright (C) by CP2K developers group (2000-2025)             **
 **                      J. Chem. Phys. 152, 194103 (2020)                    **
 **                                                                           **
 *******************************************************************************

 DFT| Spin restricted Kohn-Sham (RKS) calculation                            RKS
 DFT| Multiplicity                                                             1
 DFT| Number of spin states                                                    1
 DFT| Charge                                                                   0
 DFT| Self-interaction correction (SIC)                                       NO
 DFT| Cutoffs: density                                              1.000000E-10
 DFT|          gradient                                             1.000000E-10
 DFT|          tau                                                  1.000000E-10
 DFT|          cutoff_smoothing_range                               0.000000E+00
 DFT| XC density smoothing                                                  NONE
 DFT| XC derivatives                                                          PW

 FUNCTIONAL| PBE:
 FUNCTIONAL| J.P.Perdew, K.Burke, M.Ernzerhof, Phys. Rev. Letter, vol. 77, n 18,
 FUNCTIONAL|  pp. 3865-3868, (1996)sx=0.750sc=1.000{spin unpolarized}           


 QS| Method:                                                                GAPW
 QS| Density plane wave grid type                        NON-SPHERICAL FULLSPACE
 QS| Number of grid levels:                                                    4
 QS| Density cutoff [a.u.]:                                                250.0
 QS| Multi grid cutoff [a.u.]: 1) grid level                               250.0
 QS|                           2) grid level                                83.3
 QS|                           3) grid level                                27.8
 QS|                           4) grid level                                 9.3
 QS| Grid level progression factor:                                          3.0
 QS| Relative density cutoff [a.u.]:                                        50.0
 QS| Interaction thresholds: eps_pgf_orb:                                1.0E-12
 QS|                         eps_filter_matrix:                          0.0E+00
 QS|                         eps_core_charge:                            1.0E-14
 QS|                         eps_rho_gspace:                             1.0E-12
 QS|                         eps_rho_rspace:                             1.0E-12
 QS|                         eps_gvg_rspace:                             1.0E-06
 QS|                         eps_ppl:                                    1.0E-02
 QS|                         eps_ppnl:                                   1.0E-08
 QS| GAPW|      One center basis from orbital basis primitives
 QS| GAPW|                   eps_fit:                                    1.0E-04
 QS| GAPW|                   eps_iso:                                    1.0E-12
 QS| GAPW|                   eps_svd:                                    1.0E-08
 QS| GAPW|                   eps_cpc:                                    1.0E-12
 QS| GAPW|   atom-r-grid: quadrature:                                     GC_LOG
 QS| GAPW|      atom-s-grid:  max l :                                          4
 QS| GAPW|      max_l_rho0 :                                                   2


 ATOMIC KIND INFORMATION

  1. Atomic kind: C                                     Number of atoms:       3

     Orbital Basis Set                                         aug-SZV-MOLOPT-ae

       Number of orbital shell sets:                                           2
       Number of orbital shells:                                               6
       Number of primitive Cartesian functions:                               13
       Number of Cartesian basis functions:                                   15
       Number of spherical basis functions:                                   14
       Norm type:                                                              2

       Normalised Cartesian orbitals:

                        Set   Shell   Orbital            Exponent    Coefficient

                          1       1    2s                0.070000       0.000000
                                                         0.143687       0.040037
                                                         0.313471       0.177689
                                                         0.721783       0.139661
                                                         1.876046      -0.038599
                                                         6.036200      -0.128975
                                                        30.497239      -0.122578

                          1       2    3s                0.070000      -0.142268
                                                         0.143687       0.288819
                                                         0.313471       0.010360
                                                         0.721783       0.175994
                                                         1.876046       0.000000
                                                         6.036200       0.000000
                                                        30.497239       0.000000

                          1       3    3px               0.070000       0.000000
                                                         0.143687       0.012825
                                                         0.313471       0.142381
                                                         0.721783       0.396426
                                                         1.876046       0.544234
                                                         6.036200       0.508157
                                                        30.497239       0.384077
                          1       3    3py               0.070000       0.000000
                                                         0.143687       0.012825
                                                         0.313471       0.142381
                                                         0.721783       0.396426
                                                         1.876046       0.544234
                                                         6.036200       0.508157
                                                        30.497239       0.384077
                          1       3    3pz               0.070000       0.000000
                                                         0.143687       0.012825
                                                         0.313471       0.142381
                                                         0.721783       0.396426
                                                         1.876046       0.544234
                                                         6.036200       0.508157
                                                        30.497239       0.384077

                          1       4    4px               0.070000       0.076505
                                                         0.143687      -0.086104
                                                         0.313471       0.010230
                                                         0.721783       0.129894
                                                         1.876046       0.000000
                                                         6.036200       0.000000
                                                        30.497239       0.000000
                          1       4    4py               0.070000       0.076505
                                                         0.143687      -0.086104
                                                         0.313471       0.010230
                                                         0.721783       0.129894
                                                         1.876046       0.000000
                                                         6.036200       0.000000
                                                        30.497239       0.000000
                          1       4    4pz               0.070000       0.076505
                                                         0.143687      -0.086104
                                                         0.313471       0.010230
                                                         0.721783       0.129894
                                                         1.876046       0.000000
                                                         6.036200       0.000000
                                                        30.497239       0.000000

                          1       5    4dx2              0.070000       0.004316
                                                         0.143687       0.012639
                                                         0.313471       0.125057
                                                         0.721783       0.080411
                                                         1.876046       0.000000
                                                         6.036200       0.000000
                                                        30.497239       0.000000
                          1       5    4dxy              0.070000       0.007476
                                                         0.143687       0.021892
                                                         0.313471       0.216606
                                                         0.721783       0.139276
                                                         1.876046       0.000000
                                                         6.036200       0.000000
                                                        30.497239       0.000000
                          1       5    4dxz              0.070000       0.007476
                                                         0.143687       0.021892
                                                         0.313471       0.216606
                                                         0.721783       0.139276
                                                         1.876046       0.000000
                                                         6.036200       0.000000
                                                        30.497239       0.000000
                          1       5    4dy2              0.070000       0.004316
                                                         0.143687       0.012639
                                                         0.313471       0.125057
                                                         0.721783       0.080411
                                                         1.876046       0.000000
                                                         6.036200       0.000000
                                                        30.497239       0.000000
                          1       5    4dyz              0.070000       0.007476
                                                         0.143687       0.021892
                                                         0.313471       0.216606
                                                         0.721783       0.139276
                                                         1.876046       0.000000
                                                         6.036200       0.000000
                                                        30.497239       0.000000
                          1       5    4dz2              0.070000       0.004316
                                                         0.143687       0.012639
                                                         0.313471       0.125057
                                                         0.721783       0.080411
                                                         1.876046       0.000000
                                                         6.036200       0.000000
                                                        30.497239       0.000000

                          2       1    1s              742.737049       0.929185
                                                       136.180025       1.402437
                                                        38.098264       1.841991
                                                        13.087782       1.817278
                                                         5.082369       1.004768
                                                         2.093200       0.161650

     RI Auxiliary Basis Set             RI_aug-SZV-MOLOPT-ae_N_RI_023_s_p_d_f_g_

       Number of orbital shell sets:                                           9
       Number of orbital shells:                                               9
       Number of primitive Cartesian functions:                                9
       Number of Cartesian basis functions:                                   27
       Number of spherical basis functions:                                   23
       Norm type:                                                              2

       Normalised Cartesian orbitals:

                        Set   Shell   Orbital            Exponent    Coefficient

                          1       1    1s                0.205603       0.217612

                          2       1    6px               0.237635       0.236498
                          2       1    6py               0.237635       0.236498
                          2       1    6pz               0.237635       0.236498

                          3       1    8dx2              0.581736       0.637793
                          3       1    8dxy              0.581736       1.104690
                          3       1    8dxz              0.581736       1.104690
                          3       1    8dy2              0.581736       0.637793
                          3       1    8dyz              0.581736       1.104690
                          3       1    8dz2              0.581736       0.637793

                          4       1    2s                0.804962       0.605678

                          5       1    7px               1.023757       1.467864
                          5       1    7py               1.023757       1.467864
                          5       1    7pz               1.023757       1.467864

                          6       1    9fx3              1.116833       1.887677
                          6       1    9fx2y             1.116833       4.220974
                          6       1    9fx2z             1.116833       4.220974
                          6       1    9fxy2             1.116833       4.220974
                          6       1    9fxyz             1.116833       7.310942
                          6       1    9fxz2             1.116833       4.220974
                          6       1    9fy3              1.116833       1.887677
                          6       1    9fy2z             1.116833       4.220974
                          6       1    9fyz2             1.116833       4.220974
                          6       1    9fz3              1.116833       1.887677

                          7       1    3s                4.605726       2.240700

                          8       1    4s               20.169126       6.783056

                          9       1    5s               81.661898      19.360862

       Atomic covalent radius [Angstrom]:                                  0.770

       Atomic van der Waals radius [Angstrom]:                             1.700

     The atoms of this atomic kind are PAW atoms (GAPW):
       Hard Gaussian function radius:                                      1.512
       Rho0 radius:                                                        1.512
       Maximum GTO radius used for PAW projector construction:            24.566

     GAPW Soft Basis Set                                  aug-SZV-MOLOPT-ae_soft

       Number of orbital shell sets:                                           2
       Number of orbital shells:                                               6
       Number of primitive Cartesian functions:                                6
       Number of Cartesian basis functions:                                   15
       Number of spherical basis functions:                                   14
       Norm type:                                                              2

       Normalised Cartesian orbitals:

                        Set   Shell   Orbital            Exponent    Coefficient

                          1       1    2s                0.070000       0.000000
                                                         0.143687       0.040037
                                                         0.313471       0.177689
                                                         0.721783       0.139661
                                                         1.876046      -0.038599

                          1       2    3s                0.070000      -0.142268
                                                         0.143687       0.288819
                                                         0.313471       0.010360
                                                         0.721783       0.175994
                                                         1.876046       0.000000

                          1       3    3px               0.070000       0.000000
                                                         0.143687       0.012825
                                                         0.313471       0.142381
                                                         0.721783       0.396426
                                                         1.876046       0.544234
                          1       3    3py               0.070000       0.000000
                                                         0.143687       0.012825
                                                         0.313471       0.142381
                                                         0.721783       0.396426
                                                         1.876046       0.544234
                          1       3    3pz               0.070000       0.000000
                                                         0.143687       0.012825
                                                         0.313471       0.142381
                                                         0.721783       0.396426
                                                         1.876046       0.544234

                          1       4    4px               0.070000       0.076505
                                                         0.143687      -0.086104
                                                         0.313471       0.010230
                                                         0.721783       0.129894
                                                         1.876046       0.000000
                          1       4    4py               0.070000       0.076505
                                                         0.143687      -0.086104
                                                         0.313471       0.010230
                                                         0.721783       0.129894
                                                         1.876046       0.000000
                          1       4    4pz               0.070000       0.076505
                                                         0.143687      -0.086104
                                                         0.313471       0.010230
                                                         0.721783       0.129894
                                                         1.876046       0.000000

                          1       5    4dx2              0.070000       0.004316
                                                         0.143687       0.012639
                                                         0.313471       0.125057
                                                         0.721783       0.080411
                                                         1.876046       0.000000
                          1       5    4dxy              0.070000       0.007476
                                                         0.143687       0.021892
                                                         0.313471       0.216606
                                                         0.721783       0.139276
                                                         1.876046       0.000000
                          1       5    4dxz              0.070000       0.007476
                                                         0.143687       0.021892
                                                         0.313471       0.216606
                                                         0.721783       0.139276
                                                         1.876046       0.000000
                          1       5    4dy2              0.070000       0.004316
                                                         0.143687       0.012639
                                                         0.313471       0.125057
                                                         0.721783       0.080411
                                                         1.876046       0.000000
                          1       5    4dyz              0.070000       0.007476
                                                         0.143687       0.021892
                                                         0.313471       0.216606
                                                         0.721783       0.139276
                                                         1.876046       0.000000
                          1       5    4dz2              0.070000       0.004316
                                                         0.143687       0.012639
                                                         0.313471       0.125057
                                                         0.721783       0.080411
                                                         1.876046       0.000000

                          2       1    1s                2.093200       0.161650

     AE Potential information for                                            ALL

       Description:                                       All-electron potential
                                          Krack, Parrinello, PCCP 2, 2105 (2000)

       Gaussian exponent of the core charge distribution:               4.109048
       Electronic configuration (s p d ...):                           4   2   0

  2. Atomic kind: H                                     Number of atoms:       4

     Orbital Basis Set                                         aug-SZV-MOLOPT-ae

       Number of orbital shell sets:                                           1
       Number of orbital shells:                                               4
       Number of primitive Cartesian functions:                                7
       Number of Cartesian basis functions:                                    6
       Number of spherical basis functions:                                    6
       Norm type:                                                              2

       Normalised Cartesian orbitals:

                        Set   Shell   Orbital            Exponent    Coefficient

                          1       1    1s                0.065428       0.000000
                                                         0.100112       0.016532
                                                         0.243077       0.102760
                                                         0.625955       0.185857
                                                         1.822143       0.188385
                                                         6.513144       0.143430
                                                        35.523221       0.095030

                          1       2    2s                0.065428       0.083549
                                                         0.100112       0.009605
                                                         0.243077       0.002524
                                                         0.625955       0.013457
                                                         1.822143       0.000000
                                                         6.513144       0.000000
                                                        35.523221       0.000000

                          1       3    3s                0.065428       0.037407
                                                         0.100112      -0.169070
                                                         0.243077      -0.018899
                                                         0.625955       0.012806
                                                         1.822143       0.000000
                                                         6.513144       0.000000
                                                        35.523221       0.000000

                          1       4    2px               0.065428       0.059908
                                                         0.100112      -0.023770
                                                         0.243077       0.000032
                                                         0.625955       0.017779
                                                         1.822143       0.000000
                                                         6.513144       0.000000
                                                        35.523221       0.000000
                          1       4    2py               0.065428       0.059908
                                                         0.100112      -0.023770
                                                         0.243077       0.000032
                                                         0.625955       0.017779
                                                         1.822143       0.000000
                                                         6.513144       0.000000
                                                        35.523221       0.000000
                          1       4    2pz               0.065428       0.059908
                                                         0.100112      -0.023770
                                                         0.243077       0.000032
                                                         0.625955       0.017779
                                                         1.822143       0.000000
                                                         6.513144       0.000000
                                                        35.523221       0.000000

     RI Auxiliary Basis Set             RI_aug-SZV-MOLOPT-ae_N_RI_006_s_p_d_f_g_

       Number of orbital shell sets:                                           4
       Number of orbital shells:                                               4
       Number of primitive Cartesian functions:                                4
       Number of Cartesian basis functions:                                    6
       Number of spherical basis functions:                                    6
       Norm type:                                                              2

       Normalised Cartesian orbitals:

                        Set   Shell   Orbital            Exponent    Coefficient

                          1       1    4px               0.374198       0.417174
                          1       1    4py               0.374198       0.417174
                          1       1    4pz               0.374198       0.417174

                          2       1    1s                0.432727       0.380251

                          3       1    2s                1.080245       0.755182

                          4       1    3s                4.115952       2.059505

       Atomic covalent radius [Angstrom]:                                  0.320

       Atomic van der Waals radius [Angstrom]:                             1.090

     The atoms of this atomic kind are PAW atoms (GAPW):
       Hard Gaussian function radius:                                      1.200
       Rho0 radius:                                                        1.200
       Maximum GTO radius used for PAW projector construction:            24.566

     GAPW Soft Basis Set                                  aug-SZV-MOLOPT-ae_soft

       Number of orbital shell sets:                                           1
       Number of orbital shells:                                               4
       Number of primitive Cartesian functions:                                6
       Number of Cartesian basis functions:                                    6
       Number of spherical basis functions:                                    6
       Norm type:                                                              2

       Normalised Cartesian orbitals:

                        Set   Shell   Orbital            Exponent    Coefficient

                          1       1    1s                0.065428       0.000000
                                                         0.100112       0.016532
                                                         0.243077       0.102760
                                                         0.625955       0.185857
                                                         1.822143       0.188385
                                                         6.513144       0.000000

                          1       2    2s                0.065428       0.083549
                                                         0.100112       0.009605
                                                         0.243077       0.002524
                                                         0.625955       0.013457
                                                         1.822143       0.000000
                                                         6.513144       0.000000

                          1       3    3s                0.065428       0.037407
                                                         0.100112      -0.169070
                                                         0.243077      -0.018899
                                                         0.625955       0.012806
                                                         1.822143       0.000000
                                                         6.513144       0.000000

                          1       4    2px               0.065428       0.059908
                                                         0.100112      -0.023770
                                                         0.243077       0.000032
                                                         0.625955       0.017779
                                                         1.822143       0.000000
                                                         6.513144       0.000000
                          1       4    2py               0.065428       0.059908
                                                         0.100112      -0.023770
                                                         0.243077       0.000032
                                                         0.625955       0.017779
                                                         1.822143       0.000000
                                                         6.513144       0.000000
                          1       4    2pz               0.065428       0.059908
                                                         0.100112      -0.023770
                                                         0.243077       0.000032
                                                         0.625955       0.017779
                                                         1.822143       0.000000
                                                         6.513144       0.000000

     AE Potential information for                                            ALL

       Description:                                       All-electron potential
                                          Krack, Parrinello, PCCP 2, 2105 (2000)

       Gaussian exponent of the core charge distribution:              12.500000
       Electronic configuration (s p d ...):                           1   0   0

  3. Atomic kind: O                                     Number of atoms:       3

     Orbital Basis Set                                         aug-SZV-MOLOPT-ae

       Number of orbital shell sets:                                           2
       Number of orbital shells:                                               6
       Number of primitive Cartesian functions:                               13
       Number of Cartesian basis functions:                                   15
       Number of spherical basis functions:                                   14
       Norm type:                                                              2

       Normalised Cartesian orbitals:

                        Set   Shell   Orbital            Exponent    Coefficient

                          1       1    1s                0.123000       0.000000
                                                         0.245881       0.059902
                                                         0.536420       0.265853
                                                         1.235135       0.208956
                                                         3.210345      -0.057750
                                                        10.329320      -0.192968
                                                        52.187762      -0.183398

                          1       2    2s                0.123000      -0.253465
                                                         0.245881       0.187097
                                                         0.536420       0.063592
                                                         1.235135       0.074938
                                                         3.210345       0.000000
                                                        10.329320       0.000000
                                                        52.187762       0.000000

                          1       3    2px               0.123000       0.000000
                                                         0.245881       0.025102
                                                         0.536420       0.278668
                                                         1.235135       0.775885
                                                         3.210345       1.065175
                                                        10.329320       0.994565
                                                        52.187762       0.751716
                          1       3    2py               0.123000       0.000000
                                                         0.245881       0.025102
                                                         0.536420       0.278668
                                                         1.235135       0.775885
                                                         3.210345       1.065175
                                                        10.329320       0.994565
                                                        52.187762       0.751716
                          1       3    2pz               0.123000       0.000000
                                                         0.245881       0.025102
                                                         0.536420       0.278668
                                                         1.235135       0.775885
                                                         3.210345       1.065175
                                                        10.329320       0.994565
                                                        52.187762       0.751716

                          1       4    3px               0.123000       0.048536
                                                         0.245881       0.257066
                                                         0.536420      -0.539300
                                                         1.235135      -0.153605
                                                         3.210345       0.000000
                                                        10.329320       0.000000
                                                        52.187762       0.000000
                          1       4    3py               0.123000       0.048536
                                                         0.245881       0.257066
                                                         0.536420      -0.539300
                                                         1.235135      -0.153605
                                                         3.210345       0.000000
                                                        10.329320       0.000000
                                                        52.187762       0.000000
                          1       4    3pz               0.123000       0.048536
                                                         0.245881       0.257066
                                                         0.536420      -0.539300
                                                         1.235135      -0.153605
                                                         3.210345       0.000000
                                                        10.329320       0.000000
                                                        52.187762       0.000000

                          1       5    3dx2              0.123000       0.022065
                                                         0.245881       0.038414
                                                         0.536420       0.100211
                                                         1.235135       0.626583
                                                         3.210345       0.000000
                                                        10.329320       0.000000
                                                        52.187762       0.000000
                          1       5    3dxy              0.123000       0.038217
                                                         0.245881       0.066534
                                                         0.536420       0.173571
                                                         1.235135       1.085274
                                                         3.210345       0.000000
                                                        10.329320       0.000000
                                                        52.187762       0.000000
                          1       5    3dxz              0.123000       0.038217
                                                         0.245881       0.066534
                                                         0.536420       0.173571
                                                         1.235135       1.085274
                                                         3.210345       0.000000
                                                        10.329320       0.000000
                                                        52.187762       0.000000
                          1       5    3dy2              0.123000       0.022065
                                                         0.245881       0.038414
                                                         0.536420       0.100211
                                                         1.235135       0.626583
                                                         3.210345       0.000000
                                                        10.329320       0.000000
                                                        52.187762       0.000000
                          1       5    3dyz              0.123000       0.038217
                                                         0.245881       0.066534
                                                         0.536420       0.173571
                                                         1.235135       1.085274
                                                         3.210345       0.000000
                                                        10.329320       0.000000
                                                        52.187762       0.000000
                          1       5    3dz2              0.123000       0.022065
                                                         0.245881       0.038414
                                                         0.536420       0.100211
                                                         1.235135       0.626583
                                                         3.210345       0.000000
                                                        10.329320       0.000000
                                                        52.187762       0.000000

                          2       1    1s             1355.584234       1.459053
                                                       248.544885       2.202176
                                                        69.533902       2.892385
                                                        23.886772       2.853580
                                                         9.275933       1.577736
                                                         3.820341       0.253831

     RI Auxiliary Basis Set             RI_aug-SZV-MOLOPT-ae_N_RI_041_s_p_d_f_g_

       Number of orbital shell sets:                                          15
       Number of orbital shells:                                              15
       Number of primitive Cartesian functions:                               15
       Number of Cartesian basis functions:                                   47
       Number of spherical basis functions:                                   41
       Norm type:                                                              2

       Normalised Cartesian orbitals:

                        Set   Shell   Orbital            Exponent    Coefficient

                          1       1    1s                0.218076       0.227439

                          2       1   12dx2              0.269141       0.165529
                          2       1   12dxy              0.269141       0.286705
                          2       1   12dxz              0.269141       0.286705
                          2       1   12dy2              0.269141       0.165529
                          2       1   12dyz              0.269141       0.286705
                          2       1   12dz2              0.269141       0.165529

                          3       1    8px               0.480263       0.569888
                          3       1    8py               0.480263       0.569888
                          3       1    8pz               0.480263       0.569888

                          4       1    2s                0.718307       0.556087

                          5       1   13dx2              1.035176       1.748574
                          5       1   13dxy              1.035176       3.028620
                          5       1   13dxz              1.035176       3.028620
                          5       1   13dy2              1.035176       1.748574
                          5       1   13dyz              1.035176       3.028620
                          5       1   13dz2              1.035176       1.748574

                          6       1   15fx3              1.137270       1.966291
                          6       1   15fx2y             1.137270       4.396760
                          6       1   15fx2z             1.137270       4.396760
                          6       1   15fxy2             1.137270       4.396760
                          6       1   15fxyz             1.137270       7.615411
                          6       1   15fxz2             1.137270       4.396760
                          6       1   15fy3              1.137270       1.966291
                          6       1   15fy2z             1.137270       4.396760
                          6       1   15fyz2             1.137270       4.396760
                          6       1   15fz3              1.137270       1.966291

                          7       1    9px               1.530436       2.426382
                          7       1    9py               1.530436       2.426382
                          7       1    9pz               1.530436       2.426382

                          8       1    3s                2.109079       1.247326

                          9       1   14dx2              2.176446       6.419016
                          9       1   14dxy              2.176446      11.118061
                          9       1   14dxz              2.176446      11.118061
                          9       1   14dy2              2.176446       6.419016
                          9       1   14dyz              2.176446      11.118061
                          9       1   14dz2              2.176446       6.419016

                         10       1    4s                8.855876       3.658759

                         11       1   10px              15.499276      43.835840
                         11       1   10py              15.499276      43.835840
                         11       1   10pz              15.499276      43.835840

                         12       1    5s               34.351483      10.112749

                         13       1   11px              87.861946     383.434431
                         13       1   11py              87.861946     383.434431
                         13       1   11pz              87.861946     383.434431

                         14       1    6s              129.597186      27.375167

                         15       1    7s              486.278577      73.802988

       Atomic covalent radius [Angstrom]:                                  0.730

       Atomic van der Waals radius [Angstrom]:                             1.520

     The atoms of this atomic kind are PAW atoms (GAPW):
       Hard Gaussian function radius:                                      1.512
       Rho0 radius:                                                        1.512
       Maximum GTO radius used for PAW projector construction:            24.566

     GAPW Soft Basis Set                                  aug-SZV-MOLOPT-ae_soft

       Number of orbital shell sets:                                           2
       Number of orbital shells:                                               6
       Number of primitive Cartesian functions:                                6
       Number of Cartesian basis functions:                                   15
       Number of spherical basis functions:                                   14
       Norm type:                                                              2

       Normalised Cartesian orbitals:

                        Set   Shell   Orbital            Exponent    Coefficient

                          1       1    1s                0.123000       0.000000
                                                         0.245881       0.059902
                                                         0.536420       0.265853
                                                         1.235135       0.208956
                                                         3.210345      -0.057750

                          1       2    2s                0.123000      -0.253465
                                                         0.245881       0.187097
                                                         0.536420       0.063592
                                                         1.235135       0.074938
                                                         3.210345       0.000000

                          1       3    2px               0.123000       0.000000
                                                         0.245881       0.025102
                                                         0.536420       0.278668
                                                         1.235135       0.775885
                                                         3.210345       1.065175
                          1       3    2py               0.123000       0.000000
                                                         0.245881       0.025102
                                                         0.536420       0.278668
                                                         1.235135       0.775885
                                                         3.210345       1.065175
                          1       3    2pz               0.123000       0.000000
                                                         0.245881       0.025102
                                                         0.536420       0.278668
                                                         1.235135       0.775885
                                                         3.210345       1.065175

                          1       4    3px               0.123000       0.048536
                                                         0.245881       0.257066
                                                         0.536420      -0.539300
                                                         1.235135      -0.153605
                                                         3.210345       0.000000
                          1       4    3py               0.123000       0.048536
                                                         0.245881       0.257066
                                                         0.536420      -0.539300
                                                         1.235135      -0.153605
                                                         3.210345       0.000000
                          1       4    3pz               0.123000       0.048536
                                                         0.245881       0.257066
                                                         0.536420      -0.539300
                                                         1.235135      -0.153605
                                                         3.210345       0.000000

                          1       5    3dx2              0.123000       0.022065
                                                         0.245881       0.038414
                                                         0.536420       0.100211
                                                         1.235135       0.626583
                                                         3.210345       0.000000
                          1       5    3dxy              0.123000       0.038217
                                                         0.245881       0.066534
                                                         0.536420       0.173571
                                                         1.235135       1.085274
                                                         3.210345       0.000000
                          1       5    3dxz              0.123000       0.038217
                                                         0.245881       0.066534
                                                         0.536420       0.173571
                                                         1.235135       1.085274
                                                         3.210345       0.000000
                          1       5    3dy2              0.123000       0.022065
                                                         0.245881       0.038414
                                                         0.536420       0.100211
                                                         1.235135       0.626583
                                                         3.210345       0.000000
                          1       5    3dyz              0.123000       0.038217
                                                         0.245881       0.066534
                                                         0.536420       0.173571
                                                         1.235135       1.085274
                                                         3.210345       0.000000
                          1       5    3dz2              0.123000       0.022065
                                                         0.245881       0.038414
                                                         0.536420       0.100211
                                                         1.235135       0.626583
                                                         3.210345       0.000000

                          2       1    1s                3.820341       0.253831

     AE Potential information for                                            ALL

       Description:                                       All-electron potential
                                          Krack, Parrinello, PCCP 2, 2105 (2000)

       Gaussian exponent of the core charge distribution:               8.154466
       Electronic configuration (s p d ...):                           4   4   0


 MOLECULE KIND INFORMATION


 All atoms are their own molecule, skipping detailed information


 TOTAL NUMBERS AND MAXIMUM NUMBERS

  Total number of            - Atomic kinds:                                   3
                             - Atoms:                                         10
                             - Shell sets:                                    16
                             - Shells:                                        52
                             - Primitive Cartesian functions:                106
                             - Cartesian basis functions:                    114
                             - Spherical basis functions:                    108

  Maximum angular momentum of the orbital basis functions:                     2


 MODULE QUICKSTEP: ATOMIC COORDINATES IN ANGSTROM

   Atom Kind Element         X             Y             Z       Z(eff)     Mass
      1    1 C     6     15.466395     14.752216     14.338761   6.0000  12.0107
      2    2 H     1     16.958024     14.159599     13.271481   1.0000   1.0079
      3    2 H     1     14.818363     14.750842     13.463837   1.0000   1.0079
      4    3 O     8     16.773358     14.385410     14.194946   8.0000  15.9994
      5    2 H     1     13.041976     15.455211     14.721421   1.0000   1.0079
      6    1 C     6     13.599803     15.498547     15.691559   6.0000  12.0107
      7    1 C     6     15.003387     15.109113     15.561846   6.0000  12.0107
      8    2 H     1     16.669850     14.847697     16.444037   1.0000   1.0079
      9    3 O     8     13.057093     15.840401     16.728519   8.0000  15.9994
     10    3 O     8     15.769636     15.127769     16.684790   8.0000  15.9994



 SCF PARAMETERS         Density guess:                                    ATOMIC
                        --------------------------------------------------------
                        max_scf:                                             500
                        max_scf_history:                                       0
                        max_diis:                                              4
                        --------------------------------------------------------
                        eps_scf:                                        1.00E-06
                        eps_scf_history:                                0.00E+00
                        eps_diis:                                       1.00E-01
                        eps_eigval:                                     1.00E-05
                        --------------------------------------------------------
                        level_shift [a.u.]:                             0.000000
                        added MOs                                        85    0
                        --------------------------------------------------------
                        Mixing method:                            BROYDEN_MIXING
                                                charge density mixing in g-space
                        --------------------------------------------------------
                        No outer SCF

 PW_GRID| Information for grid number                                          1
 PW_GRID| Grid distributed over                                    80 processors
 PW_GRID| Real space group dimensions                                    80    1
 PW_GRID| the grid is blocked:                                                NO
 PW_GRID| Cutoff [a.u.]                                                    250.0
 PW_GRID| spherical cutoff:                                                   NO
 PW_GRID|   Bounds   1           -202     202                Points:         405
 PW_GRID|   Bounds   2           -202     202                Points:         405
 PW_GRID|   Bounds   3           -202     202                Points:         405
 PW_GRID| Volume element (a.u.^3)  0.2743E-02     Volume (a.u.^3)    182205.0337
 PW_GRID| Grid span                                                    FULLSPACE
 PW_GRID|   Distribution                         Average         Max         Min
 PW_GRID|   G-Vectors                           830376.6      830655      830250
 PW_GRID|   G-Rays                                2050.3        2051        2050
 PW_GRID|   Real Space Points                   830376.6      984150      820125

 PW_GRID| Information for grid number                                          2
 PW_GRID| Number of the reference grid                                         1
 PW_GRID| Grid distributed over                                    80 processors
 PW_GRID| Real space group dimensions                                    80    1
 PW_GRID| the grid is blocked:                                                NO
 PW_GRID| Cutoff [a.u.]                                                     83.3
 PW_GRID| spherical cutoff:                                                   NO
 PW_GRID|   Bounds   1           -120     119                Points:         240
 PW_GRID|   Bounds   2           -120     119                Points:         240
 PW_GRID|   Bounds   3           -120     119                Points:         240
 PW_GRID| Volume element (a.u.^3)  0.1318E-01     Volume (a.u.^3)    182205.0337
 PW_GRID| Grid span                                                    FULLSPACE
 PW_GRID|   Distribution                         Average         Max         Min
 PW_GRID|   G-Vectors                           172800.0      173520      172320
 PW_GRID|   G-Rays                                 720.0         723         718
 PW_GRID|   Real Space Points                   172800.0      172800      172800

 PW_GRID| Information for grid number                                          3
 PW_GRID| Number of the reference grid                                         1
 PW_GRID| Grid distributed over                                    80 processors
 PW_GRID| Real space group dimensions                                    80    1
 PW_GRID| the grid is blocked:                                                NO
 PW_GRID| Cutoff [a.u.]                                                     27.8
 PW_GRID| spherical cutoff:                                                   NO
 PW_GRID|   Bounds   1            -67      67                Points:         135
 PW_GRID|   Bounds   2            -67      67                Points:         135
 PW_GRID|   Bounds   3            -67      67                Points:         135
 PW_GRID| Volume element (a.u.^3)  0.7406E-01     Volume (a.u.^3)    182205.0337
 PW_GRID| Grid span                                                    FULLSPACE
 PW_GRID|   Distribution                         Average         Max         Min
 PW_GRID|   G-Vectors                            30754.7       31050       30510
 PW_GRID|   G-Rays                                 227.8         230         226
 PW_GRID|   Real Space Points                    30754.7       36450       18225

 PW_GRID| Information for grid number                                          4
 PW_GRID| Number of the reference grid                                         1
 PW_GRID| Grid distributed over                                    80 processors
 PW_GRID| Real space group dimensions                                    80    1
 PW_GRID| the grid is blocked:                                                NO
 PW_GRID| Cutoff [a.u.]                                                      9.3
 PW_GRID| spherical cutoff:                                                   NO
 PW_GRID|   Bounds   1            -40      39                Points:          80
 PW_GRID|   Bounds   2            -40      39                Points:          80
 PW_GRID|   Bounds   3            -40      39                Points:          80
 PW_GRID| Volume element (a.u.^3)  0.3559         Volume (a.u.^3)    182205.0337
 PW_GRID| Grid span                                                    FULLSPACE
 PW_GRID|   Distribution                         Average         Max         Min
 PW_GRID|   G-Vectors                             6400.0        6640        6240
 PW_GRID|   G-Rays                                  80.0          83          78
 PW_GRID|   Real Space Points                     6400.0        6400        6400

 POISSON| Solver                                                         WAVELET
 POISSON| Wavelet| Scaling function                                           40
 POISSON| Periodicity                                                       NONE

 RS_GRID| Information for grid number                                          1
 RS_GRID|   Bounds   1           -202     202                Points:         405
 RS_GRID|   Bounds   2           -202     202                Points:         405
 RS_GRID|   Bounds   3           -202     202                Points:         405
 RS_GRID| Real space distribution over                                  4 groups
 RS_GRID| Real space distribution along direction                              1
 RS_GRID| Border size                                                         34
 RS_GRID| Real space distribution over                                  4 groups
 RS_GRID| Real space distribution along direction                              2
 RS_GRID| Border size                                                         34
 RS_GRID| Real space distribution over                                  5 groups
 RS_GRID| Real space distribution along direction                              3
 RS_GRID| Border size                                                         34
 RS_GRID|   Distribution                         Average         Max         Min
 RS_GRID|   Planes                                 169.2         170         169
 RS_GRID|   Distribution                         Average         Max         Min
 RS_GRID|   Planes                                 169.2         170         169
 RS_GRID|   Distribution                         Average         Max         Min
 RS_GRID|   Planes                                 149.0         149         149

 RS_GRID| Information for grid number                                          2
 RS_GRID|   Bounds   1           -120     119                Points:         240
 RS_GRID|   Bounds   2           -120     119                Points:         240
 RS_GRID|   Bounds   3           -120     119                Points:         240
 RS_GRID| Real space distribution over                                  4 groups
 RS_GRID| Real space distribution along direction                              1
 RS_GRID| Border size                                                         37
 RS_GRID| Real space distribution over                                  4 groups
 RS_GRID| Real space distribution along direction                              2
 RS_GRID| Border size                                                         37
 RS_GRID| Real space distribution over                                  5 groups
 RS_GRID| Real space distribution along direction                              3
 RS_GRID| Border size                                                         37
 RS_GRID|   Distribution                         Average         Max         Min
 RS_GRID|   Planes                                 134.0         134         134
 RS_GRID|   Distribution                         Average         Max         Min
 RS_GRID|   Planes                                 134.0         134         134
 RS_GRID|   Distribution                         Average         Max         Min
 RS_GRID|   Planes                                 122.0         122         122

 RS_GRID| Information for grid number                                          3
 RS_GRID|   Bounds   1            -67      67                Points:         135
 RS_GRID|   Bounds   2            -67      67                Points:         135
 RS_GRID|   Bounds   3            -67      67                Points:         135
 RS_GRID| Real space fully replicated
 RS_GRID| Group size                                                           1

 RS_GRID| Information for grid number                                          4
 RS_GRID|   Bounds   1            -40      39                Points:          80
 RS_GRID|   Bounds   2            -40      39                Points:          80
 RS_GRID|   Bounds   3            -40      39                Points:          80
 RS_GRID| Real space fully replicated
 RS_GRID| Group size                                                           1

  HFX_INFO| Replica ID:                                                        1
  HFX_INFO| FRACTION:                                               0.2500000000
  HFX_INFO| Interaction Potential:                                       COULOMB
  HFX_INFO| EPS_SCHWARZ:                                                 1.0E-10
  HFX_INFO| EPS_SCHWARZ_FORCES                                           1.0E-08
  HFX_INFO| EPS_STORAGE_SCALING:                                         1.0E+00
  HFX_INFO| NBINS:                                                            64
  HFX_INFO| BLOCK_SIZE:                                                        1
  HFX_INFO| Number of periodic shells considered:                           NONE
  HFX_INFO| Number of periodic cells considered:                            NONE


 OVERLAP MATRIX CONDITION NUMBER
 1-Norm Condition Number (Estimate)
   CN : |A|*|A^-1|:  1.743E+001 *  7.031E+003   = 1.225E+005  Log(1-CN):  5.0882
 1-Norm and 2-Norm Condition Numbers using Diagonalization
   CN : |A|*|A^-1|:  1.743E+001 *  7.024E+003   = 1.224E+005  Log(1-CN):  5.0878
   CN : max/min ev:  8.088E+000 /  3.497E-004   = 2.313E+004  Log(2-CN):  4.3641

 Number of electrons:                                                         46
 Number of occupied orbitals:                                                 23
 Number of molecular orbitals:                                               108

 Number of orbital functions:                                                108
[...]
 fm_to_local_tensor                 152  8.0    0.001    0.001    1.364    1.371
 cp_cfm_power                        30 10.0    0.001    0.001    1.337    1.339
 reshape_mm_small                   392 14.4    0.025    0.027    1.234    1.278
 write_matrix                        91  8.0    0.000    0.000    1.168    1.236
 calculate_vxc_atom                  74  8.0    0.026    0.116    1.200    1.205
 create_and_init_bs_env_for_gw        1  6.0    0.000    0.000    1.147    1.186
 build_3c_integrals                 135  9.5    0.658    0.889    0.890    1.158
 mp_sum_dm                         2292  7.7    1.006    1.131    1.006    1.131
 transfer_rs2pw_90                   74  9.0    0.172    0.212    0.976    1.125
 eigensolver_symm                    73  6.0    0.005    0.006    1.077    1.081
 pw_scatter_p                       808 12.1    1.013    1.046    1.013    1.046
 gaVxcgb_GC                         146  9.0    0.044    1.033    0.044    1.033
 compute_3c_integrals               131  8.6    0.001    0.001    0.992    0.996
 mp_alltoall_i11v                  1968 10.5    0.990    0.993    0.990    0.993
 compute_3c_and_contract_W           24  8.0    0.000    0.000    0.989    0.991
 reshape_mm_compatible              392 14.4    0.004    0.004    0.895    0.946
 pw_derive                          660 11.3    0.881    0.932    0.881    0.932
 cp_fm_diag_elpa                     79  7.1    0.000    0.000    0.904    0.912
 cp_fm_diag_elpa_base                79  8.1    0.872    0.886    0.891    0.895
 mp_cart_create                    2742 14.6    0.794    0.883    0.796    0.885
 copy_fm_to_dbcsr                   298  8.5    0.001    0.001    0.828    0.849
 dbcsr_desymmetrize_deep            273  9.4    0.003    0.004    0.819    0.845
 change_split                       588 14.9    0.002    0.002    0.793    0.840
 mp_comm_split_direct              1338 17.1    0.834    0.835    0.834    0.836
 mp_isend_dv                      16999 12.7    0.311    0.813    0.311    0.813
 pw_copy                           1105 10.6    0.771    0.805    0.771    0.805
 pw_gather_p                        737 11.8    0.758    0.803    0.758    0.803
 transfer_pw2rs_10                   74 12.0    0.119    0.126    0.536    0.787
 G_times_3c                          60  8.0    0.000    0.000    0.780    0.782
 transfer_rs2pw_10                   74  9.0    0.076    0.079    0.527    0.761
 dbt_create_matrix                  152  9.0    0.001    0.001    0.748    0.754
 calculate_rho_atom                 222  9.0    0.228    0.742    0.228    0.742
 mp_comm_dup                       1144 17.5    0.647    0.717    0.648    0.718
 dbt_tas_dbm                        392 14.4    0.000    0.000    0.711    0.715
 dbt_distribution_new_expert        316 10.5    0.002    0.002    0.688    0.694
 mp_sum_dv                         4896  8.7    0.618    0.669    0.618    0.669
 compute_V_xc                         1  7.0    0.000    0.000    0.655    0.655
 integrate_four_center_main          74 10.0    0.031    0.073    0.388    0.654
 rs_gather_matrices                  74 10.0    0.001    0.003    0.504    0.641
 calculate_dm_sparse                 73  6.0    0.000    0.000    0.552    0.634
 cp_dbcsr_plus_fm_fm_t               73  7.0    0.001    0.001    0.552    0.633
 integrate_four_center_bin         9811 11.0    0.356    0.633    0.356    0.633
 powell_optimize                 389807 11.0    0.562    0.597    0.562    0.597
 fm_write                           121  9.0    0.004    0.229    0.490    0.588
 rs_grid_zero                       372 11.2    0.519    0.552    0.519    0.552
 dbm_multiply                       392 16.4    0.391    0.540    0.391    0.540
 pw_poisson_set                      75  9.0    0.001    0.001    0.508    0.536
 pw_copy_to_array                   737 11.8    0.441    0.531    0.441    0.531
 calc_screening_functions             1 10.0    0.199    0.207    0.514    0.528
 cp_fm_write_unformatted            125  9.9    0.501    0.511    0.501    0.511
 parallel_gemm_fm                   330  8.3    0.000    0.000    0.452    0.504
 parallel_gemm_fm_cosma             330  9.3    0.452    0.504    0.452    0.504
 mp_sum_l                          2954 12.0    0.443    0.499    0.443    0.499
 pw_integral_ab_c1d_c1d_gs           74  9.0    0.326    0.332    0.425    0.488
 mp_isend_dm3                      2676 11.5    0.183    0.475    0.183    0.475
 pw_poisson_rebuild                  74  9.0    0.000    0.000    0.456    0.469
 ps_wavelet_create                    1 10.0    0.000    0.000    0.456    0.469
 RS_z_slice_distribution              1 11.0    0.253    0.346    0.456    0.469
 pw_copy_from_array                 808 12.1    0.378    0.456    0.378    0.456
 calc_pair_dist_radii                 1 10.0    0.129    0.131    0.375    0.412
 parallel_gemm_cfm                  281 10.5    0.000    0.000    0.377    0.389
 parallel_gemm_cfm_cosma            281 11.5    0.377    0.389    0.377    0.389
 fft_wrap_pw1pw2_30                 148 10.5    0.004    0.005    0.357    0.388
 hybrid_alltoall_any                419 11.0    0.002    0.002    0.365    0.383
 mp_bcast_dm                       1481  9.0    0.338    0.363    0.338    0.363
 pw_axpy                            735  9.3    0.334    0.356    0.334    0.356
 mp_alltoall_i                     1656 14.3    0.300    0.356    0.300    0.356
 dbt_tas_mm_2                       146 15.2    0.000    0.000    0.340    0.342
 compute_cfm_W_ikp_freq_j            30 10.0    0.000    0.000    0.323    0.323
 calculate_rho_atom_coeff            74  6.0    0.016    0.023    0.312    0.315
 grid_integrate_task_list            74 10.0    0.039    0.309    0.039    0.309
 mp_max_i                           947  6.4    0.226    0.298    0.226    0.298
 qs_energies_init_hamiltonians        1  3.0    0.000    0.000    0.294    0.294
 build_core_hamiltonian_matrix        1  4.0    0.000    0.000    0.289    0.289
 overlap_condnum                      1  5.0    0.000    0.000    0.288    0.289
 dbt_tas_replicate                  392 14.4    0.015    0.017    0.265    0.283
 get_Sigma_x                          1  7.0    0.000    0.000    0.272    0.272
 compute_Sigma_x                      1  8.0    0.000    0.000    0.272    0.272
 G_occ_vir                          121  8.0    0.000    0.003    0.236    0.269
 check_sparsity_3c                    1  7.0    0.000    0.000    0.268    0.268
 dbcsr_multiply_generic              73  8.0    0.003    0.003    0.180    0.265
 dbt_create_new                     158 10.0    0.001    0.001    0.255    0.263
 arnoldi_conjugate_gradient           7  6.0    0.005    0.006    0.261    0.261
 mp_cart_sub                        550 10.4    0.256    0.258    0.256    0.258
 fill_fm_Sigma_c_Gamma_time           1  8.0    0.000    0.000    0.250    0.251
 fft_wrap_pw1pw2_10                 148 10.5    0.001    0.001    0.239    0.244
 compute_QP_energies                  1  7.0    0.000    0.000    0.233    0.233
 init_scf_run                         1  3.0    0.000    0.000    0.232    0.232
 scf_env_initial_rho_setup            1  4.0    0.000    0.000    0.224    0.224
 Vh_1c_gg_integrals                  74  8.0    0.008    0.112    0.170    0.212
 mp_alltoall_i22                    838 10.4    0.177    0.205    0.177    0.205
 pw_zero                            440 10.3    0.196    0.203    0.196    0.203
 qs_init_subsys                       1  2.0    0.001    0.001    0.193    0.194
 qs_env_setup                         1  3.0    0.000    0.000    0.190    0.191
 qs_env_rebuild_pw_env                2  3.5    0.000    0.000    0.190    0.191
 pw_env_rebuild                       1  5.0    0.000    0.000    0.190    0.191
 pw_grid_setup                        4  6.0    0.000    0.000    0.178    0.179
 pw_grid_setup_internal               4  7.0    0.002    0.003    0.178    0.179
 update_ks_atom                      74  8.0    0.012    0.025    0.149    0.176
 dbt_pgrid_create_expert            320 11.5    0.000    0.000    0.162    0.171
 dbt_tas_replicate_alltoall         246 15.5    0.000    0.000    0.115    0.169
 cp_cfm_geeig                         2  7.0    0.000    0.000    0.167    0.168
 multiply_cannon                     73  9.0    0.004    0.004    0.081    0.167
 dbt_tas_mm_3N                       48 15.5    0.000    0.000    0.135    0.165
 dbcsr_sym_matrix_vector_mult      1533  7.0    0.011    0.012    0.136    0.159
 dbt_copy                           414 10.0    0.002    0.002    0.129    0.157
 dbt_tas_reshape                    515 14.5    0.003    0.004    0.128    0.157
 mp_max_d                            79  7.0    0.104    0.151    0.104    0.151
 self_consistency_check              73  5.0    0.000    0.000    0.104    0.151
 cp_sm_mix                           73  6.0    0.000    0.000    0.104    0.150
 dbt_reshape                        253 10.9    0.031    0.034    0.122    0.150
 multiply_cannon_loop                73 10.0    0.004    0.005    0.065    0.149
 to_ikp_and_mo                       62  8.0    0.000    0.000    0.148    0.148
 fm_Gamma_ao_to_cfm_ikp_mo           62  9.0    0.000    0.000    0.136    0.142
 compute_fm_chi_Gamma_freq           30 10.0    0.000    0.000    0.130    0.133
 multiply_cannon_metrocomm3        1460 11.0    0.002    0.002    0.042    0.133
 check_for_restart_files              1  7.0    0.094    0.132    0.094    0.132
 abc_contract_xsmm                18864 10.5    0.023    0.132    0.023    0.132
 dbt_tas_mp_comm                    196 12.9    0.001    0.001    0.108    0.122
 pw_grid_sort                         4  8.0    0.082    0.085    0.111    0.120
 convert_to_new_pgrid              1176 14.4    0.053    0.077    0.091    0.117
 multiply_fm_W_MIC_time_with_Mi       2  9.0    0.000    0.000    0.116    0.116
 rs_scatter_matrices                 74  7.0    0.001    0.001    0.106    0.110
 dbt_tas_reshape_alltoall           515 15.5    0.000    0.000    0.077    0.109
 setup_time_and_frequency_minim       1  7.0    0.000    0.000    0.100    0.104
 dos_pdos_ldos                        1  5.0    0.000    0.000    0.093    0.102
 dbcsr_add_d                       3249  8.2    0.001    0.002    0.021    0.099
 dbcsr_add_anytype                 3249  9.2    0.003    0.010    0.019    0.098
 mp_sum_i                           552 14.0    0.082    0.096    0.082    0.096
 dbm_redistribute                   438 13.7    0.055    0.093    0.055    0.093
 cp_fm_symm                          73  7.0    0.078    0.093    0.078    0.093
 dbt_nd_mp_comm                     152 10.0    0.000    0.000    0.084    0.091
 mp_irecv_dm3                      2676 11.5    0.021    0.090    0.021    0.090
 integrate_four_center_load          74 10.0    0.000    0.000    0.072    0.090
 hfx_load_balance                     1 11.0    0.000    0.000    0.072    0.090
 cp_cfm_cholesky_decompose           35 10.7    0.085    0.088    0.085    0.088
 multiply_cannon_metrocomm1        1460 11.0    0.001    0.001    0.008    0.085
 cp_cfm_cholesky_invert              31 11.0    0.083    0.085    0.083    0.085
 scale_and_distribute               148 10.0    0.063    0.084    0.063    0.084
 dbcsr_finalize                    6208 11.2    0.010    0.023    0.039    0.084
 mp_waitall_2                      2408 16.0    0.046    0.082    0.046    0.082
 create_qs_kind_set                   1  2.0    0.000    0.000    0.075    0.076
 read_qs_kind                         3  3.0    0.027    0.035    0.075    0.076
 integrate_four_center_dist_KS       74 10.0    0.005    0.006    0.066    0.069
 dbcsr_rep_row_to_rep_col_vec      1533  8.0    0.004    0.004    0.037    0.068
 dbt_tas_mm_3T                       94 15.5    0.000    0.000    0.037    0.068
 global_matrix_to_local_matrix      152  9.0    0.001    0.001    0.061    0.067
 integrate_four_center_getP          74 10.0    0.005    0.006    0.060    0.065
 mp_isendrecv_dv                  23384 12.0    0.032    0.063    0.032    0.063
 make_m2s                           146  9.0    0.002    0.003    0.057    0.062
 dbcsr_col_vec_to_rep_row          1533  8.0    0.005    0.005    0.043    0.062
 pw_scale                           293  9.5    0.041    0.061    0.041    0.061
 dbt_tas_mm_1N                      104 15.5    0.000    0.000    0.039    0.061
 dbt_tas_communicate_buffer         907 16.5    0.005    0.007    0.039    0.057
 multiply_cannon_metrocomm4        1387 11.0    0.002    0.002    0.006    0.057
 hfx_load_balance_range               1 12.0    0.000    0.000    0.038    0.056
 dbt_communicate_buffer             253 11.9    0.001    0.001    0.029    0.055
 calculate_rho0_atom                222  9.0    0.051    0.052    0.051    0.052
 cp_fm_power                          3  8.7    0.000    0.000    0.051    0.052
 parser_read_line                 11774  4.0    0.002    0.002    0.048    0.050
 mp_rank_compare                   1545 13.0    0.045    0.048    0.045    0.048
 parser_read_line_low                21  5.0    0.001    0.011    0.047    0.048
 dbt_tas_merge                      146 14.2    0.008    0.010    0.035    0.047
 broadcast_input_information         21  6.0    0.004    0.004    0.046    0.047
 send_sizes_1                       152 10.0    0.000    0.000    0.038    0.045
 scf_post_calculation_gpw             1  3.0    0.000    0.000    0.043    0.043
 write_available_results              1  4.0    0.000    0.000    0.043    0.043
 write_mo_free_results                1  5.0    0.004    0.005    0.043    0.043
 vxc_of_r_new                       292  9.0    0.000    0.006    0.003    0.041
 local_dbt_to_global_mat             91  8.0    0.000    0.000    0.036    0.040
 mp_bcast_dv                       1533  9.0    0.023    0.040    0.023    0.040
 get_l_sq_wghts_cos_tf_t_to_w         1  8.0    0.035    0.039    0.035    0.039
 create_3c_t                          3  8.0    0.000    0.000    0.033    0.037
 dbcsr_merge_all                   4394 12.2    0.014    0.031    0.019    0.037
 sort_shells                          4  9.0    0.029    0.037    0.029    0.037
 dbcsr_iterator_start             24215  9.3    0.020    0.029    0.024    0.037
 mp_maxloc_dv                      1619  1.0    0.031    0.035    0.031    0.035
 get_l_sq_wghts_sin_tf_t_to_w         1  8.0    0.034    0.034    0.034    0.034
 mp_bcast_i_src                      84  7.0    0.029    0.034    0.029    0.034
 make_images                        146 10.0    0.004    0.004    0.029    0.034
 dbt_tas_replicate_communicate_     246 15.5    0.001    0.001    0.020    0.033
 cp_fm_uplo_to_full                  82  9.1    0.016    0.031    0.016    0.031
 get_l_sq_wghts_cos_tf_w_to_t         1  8.0    0.029    0.030    0.031    0.031
 hfx_load_balance_redist              1 12.0    0.003    0.004    0.030    0.031
 local_matrix_to_global_matrix       91  9.0    0.000    0.000    0.023    0.031
 mp_bcast_b_src                     152  7.6    0.015    0.029    0.015    0.029
 dbt_tas_merge_alltoall             146 15.2    0.000    0.000    0.018    0.028
 dbcsr_work_create                 5105 11.2    0.007    0.019    0.011    0.028
 mixing_init                          1  5.0    0.026    0.028    0.028    0.028
 create_tensors                       1  7.0    0.000    0.000    0.027    0.028
 evaluate_core_matrix_traces         73  6.0    0.000    0.000    0.023    0.027
 dbcsr_dot                          147  8.0    0.001    0.001    0.023    0.027
 calculate_ptrace_kp                146  7.0    0.000    0.000    0.023    0.027
 dbt_tas_reshape_buffer_obtain      515 15.5    0.018    0.019    0.025    0.026
 mp_isendrecv_lv                    158 13.0    0.000    0.026    0.000    0.026
 pw_grid_remap                        4  8.0    0.003    0.003    0.019    0.026
 send_sizes_2                       152 10.0    0.000    0.000    0.017    0.025
 mp_sum_im3                           6  9.5    0.017    0.024    0.017    0.024
 offload_free_buffer                 82  8.5    0.012    0.023    0.012    0.023
 make_images_sizes                  146 11.0    0.000    0.000    0.019    0.023
 mp_alltoall_i44                    146 12.0    0.018    0.023    0.018    0.023
 xc_pw_smooth                        73 10.0    0.000    0.000    0.022    0.023
 dbcsr_copy                        6921  7.7    0.011    0.013    0.019    0.021
 hirshfeld_integration                1  6.0    0.001    0.004    0.021    0.021
 cp_fm_redistribute_start            79  8.1    0.000    0.000    0.013    0.021
 dbt_tas_reshape_communicate_bu     515 15.5    0.001    0.002    0.013    0.020
 write_mo_set_to_restart             73  5.0    0.001    0.012    0.016    0.020
 create_3c_tensor                     3  9.0    0.000    0.000    0.014    0.020
 cp_cfm_triangular_invert             2  8.0    0.019    0.020    0.019    0.020
 dbcsr_work_destroy_all            5105 12.1    0.005    0.014    0.008    0.019
 RI_2c_integral_mat                   4  9.8    0.000    0.000    0.019    0.019
 dbcsr_create_new                 10465  9.3    0.014    0.014    0.018    0.019
 dbcsr_iterator_stop              24215  9.3    0.011    0.016    0.014    0.019
 dbcsr_crop_matrix                  438 10.0    0.001    0.002    0.018    0.019
 mp_bcast_av                        810  1.0    0.005    0.007    0.013    0.018
 delete_unnecessary_files             1  8.0    0.000    0.000    0.000    0.018
 mp_bcast_am_src                     21  7.0    0.013    0.017    0.013    0.018
 mp_irecv_dv                      16253 12.7    0.011    0.017    0.011    0.017
 safe_delete                         60  9.0    0.000    0.017    0.000    0.017
 mp_max_l                            99 10.1    0.015    0.017    0.015    0.017
 calculate_hirshfeld_normalizat       1  6.0    0.001    0.004    0.016    0.017
 dbcsr_dot_sd                        74 10.0    0.000    0.000    0.011    0.016
 create_2c_t                          1  8.0    0.000    0.000    0.016    0.016
 comm_size                           91 10.0    0.000    0.000    0.014    0.016
 create_2c_tensor                     3  9.0    0.000    0.000    0.015    0.016
 write_mo_set_low                     4  6.0    0.000    0.000    0.015    0.016
 distribution_3d_create               2  9.0    0.000    0.000    0.011    0.015
 pw_grid_assign                       4  8.0    0.013    0.014    0.015    0.015
 mp_bcast_i                        1923 12.5    0.010    0.015    0.010    0.015
 dbt_tas_merge_communicate_buff     146 15.2    0.000    0.000    0.008    0.014
 compute_MinvVsqrt_Vsqrt              1  9.0    0.000    0.000    0.014    0.014
 dbcsr_copy_submatrix               438 11.0    0.002    0.002    0.014    0.014
 external_control                    73  5.0    0.000    0.009    0.012    0.014
 dbcsr_data_new                   49749 11.6    0.007    0.013    0.007    0.013
 mp_sum_im                           10  8.6    0.011    0.013    0.011    0.013
 mp_sum_lv                           15  4.1    0.009    0.013    0.009    0.013
 -------------------------------------------------------------------------------

 The number of warnings for this run is : 1
 
 -------------------------------------------------------------------------------
  **** **** ******  **  PROGRAM ENDED AT                 2025-05-29 22:05:57.088
 ***** ** ***  *** **   PROGRAM RAN ON                     n2cn0177.ab2021.local
 **    ****   ******    PROGRAM RAN BY                                  metdyn02
 ***** **    ** ** **   PROGRAM PROCESS ID                               1253697
  **** **  *******  **  PROGRAM STOPPED IN /scratch/hpc-prf-metdyn/metdyn02_Remi
                                           /10_MOL/05_MOL_low_scal/05_MOL/aUKBqs
                                           EOTmq69kFe5R_nOg/5k_set_final_qzvp/TR
                                           IRED/SZV/1e-2/5.0
