SIRIUS 7.5.2, git hash: https://api.github.com/repos/electronic-structure/SIRIUS/git/ref/tags/v7.5.2
 DBCSR| CPU Multiplication driver                                           XSMM (U)
 DBCSR| Multrec recursion limit                                              512 (U)
 DBCSR| Multiplication stack size                                           1000 (D)
 DBCSR| Maximum elements for images                                    UNLIMITED (U)
 DBCSR| Multiplicative factor virtual images                                   1 (U)
 DBCSR| Use multiplication densification                                       T (D)
 DBCSR| Multiplication size stacks                                             3 (U)
 DBCSR| Use memory pool for CPU allocation                                     F (U)
 DBCSR| Number of 3D layers                                               SINGLE (U)
 DBCSR| Use MPI memory allocation                                              F (U)
 DBCSR| Use RMA algorithm                                                      F (U)
 DBCSR| Use Communication thread                                               T (U)
 DBCSR| Communication thread load                                             75 (D)
 DBCSR| MPI: My process id                                                     0
 DBCSR| MPI: Number of processes                                             192
 DBCSR| OMP: Current number of threads                                         4
 DBCSR| OMP: Max number of threads                                             4
 DBCSR| Split modifier for TAS multiplication algorithm                  1.0E+00 (U)


  **** **** ******  **  PROGRAM STARTED AT               2025-03-28 05:31:24.423
 ***** ** ***  *** **   PROGRAM STARTED ON                 n2cn0245.ab2021.local
 **    ****   ******    PROGRAM STARTED BY                              metdyn02
 ***** **    ** ** **   PROGRAM PROCESS ID                                706379
  **** **  *******  **  PROGRAM STARTED IN /scratch/hpc-prf-metdyn/metdyn02_Remi
                                           /10_MOL/05_MOL/aUKBqsEOTmq69kFe5R_nOg
                                           /5k_set_final_qzvp/AHOMAM/SZVSR/TDDFT
                                           /1e-4

 CP2K| version string:                 CP2K version 2025.1 (Development Version)
 CP2K| source code revision number:                                  git:9754b87
 CP2K| cp2kflags: omp libint fftw3 libxc libgrpp elpa parallel scalapack mpi_f08
 CP2K|             cosma xsmm plumed2 spglib sirius libvori libbqb libvdwxc hdf5
 CP2K| is freely available from                            https://www.cp2k.org/
 CP2K| Program compiled at                          Sun Mar 23 00:44:01 CET 2025
 CP2K| Program compiled on                                              n2login1
 CP2K| Program compiled for                                                local
 CP2K| Data directory path    /opt/software/pc2/EB-SW/software/CP2K/2024.1-foss-
 CP2K| Input file name                                                    GW.inp

 GLOBAL| Force Environment number                                              1
 GLOBAL| Basis set file name            /scratch/hpc-prf-metdyn/metdyn02_Remi/BA
 GLOBAL| Potential file name            /pc2/groups/hpc-prf-metdyn/metdyn02_Remi
 GLOBAL| MM Potential file name                                     MM_POTENTIAL
 GLOBAL| Coordinate file name                                      __STD_INPUT__
 GLOBAL| Method name                                                        CP2K
 GLOBAL| Project name                                                       MoS2
 GLOBAL| Run type                                                         ENERGY
 GLOBAL| FFT library                                                       FFTW3
 GLOBAL| Diagonalization library                                            ELPA
 GLOBAL| DGEMM library                                                      BLAS
 GLOBAL| Minimum number of eigenvectors for ELPA usage                        16
 GLOBAL| Orthonormality check for eigenvectors                          DISABLED
 GLOBAL| Matrix multiplication library                                     COSMA
 GLOBAL| All-to-all communication in single precision                          F
 GLOBAL| FFTs using library dependent lengths                                  F
 GLOBAL| Grid backend                                                       AUTO
 GLOBAL| Global print level                                               MEDIUM
 GLOBAL| MPI I/O enabled                                                       T
 GLOBAL| Total number of message passing processes                           192
 GLOBAL| Number of threads for this process                                    4
 GLOBAL| This output is from process                                           0
 GLOBAL| OpenMP stack size per thread (OMP_STACKSIZE)                    default
 GLOBAL| CPU model name                          AMD EPYC 7763 64-Core Processor
 GLOBAL| CPUID                                                              1002

 MEMORY| system memory details [Kb]
 MEMORY|                        rank 0           min           max       average
 MEMORY| MemTotal            263899252     263899252     263899264     263899260
 MEMORY| MemFree             244149692     239405296     244149692     241996985
 MEMORY| Buffers                 61428         61428        217316        139310
 MEMORY| Cached                6299760       6299760      10380780       7958707
 MEMORY| Slab                  2124904       2011448       2575072       2311836
 MEMORY| SReclaimable           375456        374168        555440        422940
 MEMORY| MemLikelyFree       250886336     250183504     251039708     250517944


 *** Fundamental physical constants (SI units) ***

 *** Literature: B. J. Mohr and B. N. Taylor,
 ***             CODATA recommended values of the fundamental physical
 ***             constants: 2006, Web Version 5.1
 ***             http://physics.nist.gov/constants

 Speed of light in vacuum [m/s]                             2.99792458000000E+08
 Magnetic constant or permeability of vacuum [N/A**2]       1.25663706143592E-06
 Electric constant or permittivity of vacuum [F/m]          8.85418781762039E-12
 Planck constant (h) [J*s]                                  6.62606896000000E-34
 Planck constant (h-bar) [J*s]                              1.05457162825177E-34
 Elementary charge [C]                                      1.60217648700000E-19
 Electron mass [kg]                                         9.10938215000000E-31
 Electron g factor [ ]                                     -2.00231930436220E+00
 Proton mass [kg]                                           1.67262163700000E-27
 Fine-structure constant                                    7.29735253760000E-03
 Rydberg constant [1/m]                                     1.09737315685270E+07
 Avogadro constant [1/mol]                                  6.02214179000000E+23
 Boltzmann constant [J/K]                                   1.38065040000000E-23
 Atomic mass unit [kg]                                      1.66053878200000E-27
 Bohr radius [m]                                            5.29177208590000E-11

 *** Conversion factors ***

 [u] -> [a.u.]                                              1.82288848426455E+03
 [Angstrom] -> [Bohr] = [a.u.]                              1.88972613288564E+00
 [a.u.] = [Bohr] -> [Angstrom]                              5.29177208590000E-01
 [a.u.] -> [s]                                              2.41888432650478E-17
 [a.u.] -> [fs]                                             2.41888432650478E-02
 [a.u.] -> [J]                                              4.35974393937059E-18
 [a.u.] -> [N]                                              8.23872205491840E-08
 [a.u.] -> [K]                                              3.15774647902944E+05
 [a.u.] -> [kJ/mol]                                         2.62549961709828E+03
 [a.u.] -> [kcal/mol]                                       6.27509468713739E+02
 [a.u.] -> [Pa]                                             2.94210107994716E+13
 [a.u.] -> [bar]                                            2.94210107994716E+08
 [a.u.] -> [atm]                                            2.90362800883016E+08
 [a.u.] -> [eV]                                             2.72113838565563E+01
 [a.u.] -> [Hz]                                             6.57968392072181E+15
 [a.u.] -> [1/cm] (wave numbers)                            2.19474631370540E+05
 [a.u./Bohr**2] -> [1/cm]                                   5.14048714338585E+03
 

 CELL_TOP| Volume [angstrom^3]:                                     27000.000000
 CELL_TOP| Vector a [angstrom    30.000     0.000     0.000   |a| =    30.000000
 CELL_TOP| Vector b [angstrom     0.000    30.000     0.000   |b| =    30.000000
 CELL_TOP| Vector c [angstrom     0.000     0.000    30.000   |c| =    30.000000
 CELL_TOP| Angle (b,c), alpha [degree]:                                90.000000
 CELL_TOP| Angle (a,c), beta  [degree]:                                90.000000
 CELL_TOP| Angle (a,b), gamma [degree]:                                90.000000
 CELL_TOP| Numerically orthorhombic:                                         YES
 CELL_TOP| Periodicity                                                      NONE

 GENERATE|  Preliminary Number of Bonds generated:                             0
 GENERATE|  Achieved consistency in connectivity generation.

 CELL| Volume [angstrom^3]:                                         27000.000000
 CELL| Vector a [angstrom]:      30.000     0.000     0.000   |a| =    30.000000
 CELL| Vector b [angstrom]:       0.000    30.000     0.000   |b| =    30.000000
 CELL| Vector c [angstrom]:       0.000     0.000    30.000   |c| =    30.000000
 CELL| Angle (b,c), alpha [degree]:                                    90.000000
 CELL| Angle (a,c), beta  [degree]:                                    90.000000
 CELL| Angle (a,b), gamma [degree]:                                    90.000000
 CELL| Numerically orthorhombic:                                             YES
 CELL| Periodicity                                                          NONE

 CELL_REF| Volume [angstrom^3]:                                     27000.000000
 CELL_REF| Vector a [angstrom    30.000     0.000     0.000   |a| =    30.000000
 CELL_REF| Vector b [angstrom     0.000    30.000     0.000   |b| =    30.000000
 CELL_REF| Vector c [angstrom     0.000     0.000    30.000   |c| =    30.000000
 CELL_REF| Angle (b,c), alpha [degree]:                                90.000000
 CELL_REF| Angle (a,c), beta  [degree]:                                90.000000
 CELL_REF| Angle (a,b), gamma [degree]:                                90.000000
 CELL_REF| Numerically orthorhombic:                                         YES
 CELL_REF| Periodicity                                                      NONE

 *******************************************************************************
 *******************************************************************************
 **                                                                           **
 **     #####                         ##              ##                      **
 **    ##   ##            ##          ##              ##                      **
 **   ##     ##                       ##            ######                    **
 **   ##     ##  ##   ##  ##   #####  ##  ##   ####   ##    #####    #####    **
 **   ##     ##  ##   ##  ##  ##      ## ##   ##      ##   ##   ##  ##   ##   **
 **   ##  ## ##  ##   ##  ##  ##      ####     ###    ##   ######   ######    **
 **    ##  ###   ##   ##  ##  ##      ## ##      ##   ##   ##       ##        **
 **     #######   #####   ##   #####  ##  ##  ####    ##    #####   ##        **
 **           ##                                                    ##        **
 **                                                                           **
 **                                                ... make the atoms dance   **
 **                                                                           **
 **            Copyright (C) by CP2K developers group (2000-2025)             **
 **                      J. Chem. Phys. 152, 194103 (2020)                    **
 **                                                                           **
 *******************************************************************************

 DFT| Spin restricted Kohn-Sham (RKS) calculation                            RKS
 DFT| Multiplicity                                                             1
 DFT| Number of spin states                                                    1
 DFT| Charge                                                                   0
 DFT| Self-interaction correction (SIC)                                       NO
 DFT| Cutoffs: density                                              1.000000E-10
 DFT|          gradient                                             1.000000E-10
 DFT|          tau                                                  1.000000E-10
 DFT|          cutoff_smoothing_range                               0.000000E+00
 DFT| XC density smoothing                                                  NONE
 DFT| XC derivatives                                                          PW

 FUNCTIONAL| PBE:
 FUNCTIONAL| J.P.Perdew, K.Burke, M.Ernzerhof, Phys. Rev. Letter, vol. 77, n 18,
 FUNCTIONAL|  pp. 3865-3868, (1996)sx=0.750sc=1.000{spin unpolarized}           


 QS| Method:                                                                GAPW
 QS| Density plane wave grid type                        NON-SPHERICAL FULLSPACE
 QS| Number of grid levels:                                                    4
 QS| Density cutoff [a.u.]:                                                250.0
 QS| Multi grid cutoff [a.u.]: 1) grid level                               250.0
 QS|                           2) grid level                                83.3
 QS|                           3) grid level                                27.8
 QS|                           4) grid level                                 9.3
 QS| Grid level progression factor:                                          3.0
 QS| Relative density cutoff [a.u.]:                                        50.0
 QS| Interaction thresholds: eps_pgf_orb:                                1.0E-12
 QS|                         eps_filter_matrix:                          0.0E+00
 QS|                         eps_core_charge:                            1.0E-14
 QS|                         eps_rho_gspace:                             1.0E-12
 QS|                         eps_rho_rspace:                             1.0E-12
 QS|                         eps_gvg_rspace:                             1.0E-06
 QS|                         eps_ppl:                                    1.0E-02
 QS|                         eps_ppnl:                                   1.0E-08
 QS| GAPW|      One center basis from orbital basis primitives
 QS| GAPW|                   eps_fit:                                    1.0E-04
 QS| GAPW|                   eps_iso:                                    1.0E-12
 QS| GAPW|                   eps_svd:                                    1.0E-08
 QS| GAPW|                   eps_cpc:                                    1.0E-12
 QS| GAPW|   atom-r-grid: quadrature:                                     GC_LOG
 QS| GAPW|      atom-s-grid:  max l :                                          4
 QS| GAPW|      max_l_rho0 :                                                   2
 QS| GAPW|      At least one kind is NOT PAW, i.e. it has only soft AO 
 QS| GAPW|      The NOT PAW atoms are treated fully GPW


 ATOMIC KIND INFORMATION

  1. Atomic kind: H                                     Number of atoms:       4

     Orbital Basis Set                                      aug-SZV-MOLOPT-ae-SR

       Number of orbital shell sets:                                           1
       Number of orbital shells:                                               4
       Number of primitive Cartesian functions:                                4
       Number of Cartesian basis functions:                                    6
       Number of spherical basis functions:                                    6
       Norm type:                                                              2

       Normalised Cartesian orbitals:

                        Set   Shell   Orbital            Exponent    Coefficient

                          1       1    2s                0.065428       0.000000
                                                         0.168855       0.083474
                                                         0.623914       0.267839
                                                         3.425251       0.276934

                          1       2    3s                0.065428      -0.066952
                                                         0.168855       0.261968
                                                         0.623914       0.081548
                                                         3.425251      -0.022414

                          1       3    4s                0.065428       0.165615
                                                         0.168855      -0.226449
                                                         0.623914      -0.005802
                                                         3.425251       0.005451

                          1       4    3px               0.065428       0.053063
                                                         0.168855      -0.030502
                                                         0.623914       0.062721
                                                         3.425251       0.019012
                          1       4    3py               0.065428       0.053063
                                                         0.168855      -0.030502
                                                         0.623914       0.062721
                                                         3.425251       0.019012
                          1       4    3pz               0.065428       0.053063
                                                         0.168855      -0.030502
                                                         0.623914       0.062721
                                                         3.425251       0.019012

     RI Auxiliary Basis Set             RI_aug-SZV-MOLOPT-ae-SR_N_RI_011_s_p_d_f

       Number of orbital shell sets:                                           7
       Number of orbital shells:                                               7
       Number of primitive Cartesian functions:                                7
       Number of Cartesian basis functions:                                   11
       Number of spherical basis functions:                                   11
       Norm type:                                                              2

       Normalised Cartesian orbitals:

                        Set   Shell   Orbital            Exponent    Coefficient

                          1       1    1s                0.220060       0.228990

                          2       1    6px               0.249217       0.250993
                          2       1    6py               0.249217       0.250993
                          2       1    6pz               0.249217       0.250993

                          3       1    2s                0.439991       0.385028

                          4       1    3s                1.250226       0.842658

                          5       1    7px               1.527347       2.420262
                          5       1    7py               1.527347       2.420262
                          5       1    7pz               1.527347       2.420262

                          6       1    4s                3.629850       1.874246

                          7       1    5s                7.032687       3.077875

       Atomic covalent radius [Angstrom]:                                  0.320

       Atomic van der Waals radius [Angstrom]:                             1.090

     AE Potential information for                                            ALL

       Description:                                       All-electron potential
                                          Krack, Parrinello, PCCP 2, 2105 (2000)

       Gaussian exponent of the core charge distribution:              12.500000
       Electronic configuration (s p d ...):                           1   0   0

  2. Atomic kind: S                                     Number of atoms:       1

     Orbital Basis Set                                         aug-SZV-MOLOPT-ae

       Number of orbital shell sets:                                           3
       Number of orbital shells:                                               8
       Number of primitive Cartesian functions:                               19
       Number of Cartesian basis functions:                                   19
       Number of spherical basis functions:                                   18
       Norm type:                                                              2

       Normalised Cartesian orbitals:

                        Set   Shell   Orbital            Exponent    Coefficient

                          1       1    1s                0.072000       0.000000
                                                         0.148404       0.047043
                                                         0.287959       0.206056
                                                         0.581913       0.071732
                                                         1.300021      -0.154888
                                                         3.466625      -0.128563
                                                        12.944394      -0.038633

                          1       2    2s                0.072000       0.024465
                                                         0.148404       0.270123
                                                         0.287959      -0.286184
                                                         0.581913       0.001423
                                                         1.300021       0.046778
                                                         3.466625       0.000000
                                                        12.944394       0.000000

                          1       3    2px               0.072000       0.000000
                                                         0.148404       0.013902
                                                         0.287959       0.147021
                                                         0.581913       0.300295
                                                         1.300021       0.150808
                                                         3.466625      -0.123340
                                                        12.944394      -0.249863
                          1       3    2py               0.072000       0.000000
                                                         0.148404       0.013902
                                                         0.287959       0.147021
                                                         0.581913       0.300295
                                                         1.300021       0.150808
                                                         3.466625      -0.123340
                                                        12.944394      -0.249863
                          1       3    2pz               0.072000       0.000000
                                                         0.148404       0.013902
                                                         0.287959       0.147021
                                                         0.581913       0.300295
                                                         1.300021       0.150808
                                                         3.466625      -0.123340
                                                        12.944394      -0.249863

                          1       4    3px               0.072000      -0.066040
                                                         0.148404       0.050064
                                                         0.287959      -0.069730
                                                         0.581913       0.158592
                                                         1.300021      -0.055990
                                                         3.466625       0.000000
                                                        12.944394       0.000000
                          1       4    3py               0.072000      -0.066040
                                                         0.148404       0.050064
                                                         0.287959      -0.069730
                                                         0.581913       0.158592
                                                         1.300021      -0.055990
                                                         3.466625       0.000000
                                                        12.944394       0.000000
                          1       4    3pz               0.072000      -0.066040
                                                         0.148404       0.050064
                                                         0.287959      -0.069730
                                                         0.581913       0.158592
                                                         1.300021      -0.055990
                                                         3.466625       0.000000
                                                        12.944394       0.000000

                          1       5    3dx2              0.072000       0.001679
                                                         0.148404       0.023049
                                                         0.287959       0.065695
                                                         0.581913       0.132541
                                                         1.300021       0.392654
                                                         3.466625       0.000000
                                                        12.944394       0.000000
                          1       5    3dxy              0.072000       0.002907
                                                         0.148404       0.039921
                                                         0.287959       0.113787
                                                         0.581913       0.229567
                                                         1.300021       0.680096
                                                         3.466625       0.000000
                                                        12.944394       0.000000
                          1       5    3dxz              0.072000       0.002907
                                                         0.148404       0.039921
                                                         0.287959       0.113787
                                                         0.581913       0.229567
                                                         1.300021       0.680096
                                                         3.466625       0.000000
                                                        12.944394       0.000000
                          1       5    3dy2              0.072000       0.001679
                                                         0.148404       0.023049
                                                         0.287959       0.065695
                                                         0.581913       0.132541
                                                         1.300021       0.392654
                                                         3.466625       0.000000
                                                        12.944394       0.000000
                          1       5    3dyz              0.072000       0.002907
                                                         0.148404       0.039921
                                                         0.287959       0.113787
                                                         0.581913       0.229567
                                                         1.300021       0.680096
                                                         3.466625       0.000000
                                                        12.944394       0.000000
                          1       5    3dz2              0.072000       0.001679
                                                         0.148404       0.023049
                                                         0.287959       0.065695
                                                         0.581913       0.132541
                                                         1.300021       0.392654
                                                         3.466625       0.000000
                                                        12.944394       0.000000

                          2       1    1s              345.589679      -0.757073
                                                        68.401217      -0.796580
                                                        21.259047      -0.238395
                                                         8.179122       0.862581
                                                         3.552198       1.097452
                                                         1.628232       0.247277

                          2       2    2px             345.589679       7.985348
                                                        68.401217      10.565097
                                                        21.259047      11.315175
                                                         8.179122       8.242094
                                                         3.552198       2.960247
                                                         1.628232       0.266650
                          2       2    2py             345.589679       7.985348
                                                        68.401217      10.565097
                                                        21.259047      11.315175
                                                         8.179122       8.242094
                                                         3.552198       2.960247
                                                         1.628232       0.266650
                          2       2    2pz             345.589679       7.985348
                                                        68.401217      10.565097
                                                        21.259047      11.315175
                                                         8.179122       8.242094
                                                         3.552198       2.960247
                                                         1.628232       0.266650

                          3       1    1s             5529.038289       4.187581
                                                      1013.743118       6.320396
                                                       283.608793       8.301345
                                                        97.427275       8.189970
                                                        37.833862       4.528212
                                                        15.582074       0.728513

     RI Auxiliary Basis Set             RI_aug-SZV-MOLOPT-ae_N_RI_072_s_p_d_f_g_

       Number of orbital shell sets:                                          20
       Number of orbital shells:                                              20
       Number of primitive Cartesian functions:                               20
       Number of Cartesian basis functions:                                   93
       Number of spherical basis functions:                                   72
       Norm type:                                                              2

       Normalised Cartesian orbitals:

                        Set   Shell   Orbital            Exponent    Coefficient

                          1       1   19gx4              0.275952       0.032265
                          1       1   19gx3y             0.275952       0.085365
                          1       1   19gx3z             0.275952       0.085365
                          1       1   19gx2y2            0.275952       0.110205
                          1       1   19gx2yz            0.275952       0.190881
                          1       1   19gx2z2            0.275952       0.110205
                          1       1   19gxy3             0.275952       0.085365
                          1       1   19gxy2z            0.275952       0.190881
                          1       1   19gxyz2            0.275952       0.190881
                          1       1   19gxz3             0.275952       0.085365
                          1       1   19gy4              0.275952       0.032265
                          1       1   19gy3z             0.275952       0.085365
                          1       1   19gy2z2            0.275952       0.110205
                          1       1   19gyz3             0.275952       0.085365
                          1       1   19gz4              0.275952       0.032265

                          2       1    8px               0.294315       0.308998
                          2       1    8py               0.294315       0.308998
                          2       1    8pz               0.294315       0.308998

                          3       1    1s                0.341678       0.318510

                          4       1   14dx2              0.636998       0.747568
                          4       1   14dxy              0.636998       1.294827
                          4       1   14dxz              0.636998       1.294827
                          4       1   14dy2              0.636998       0.747568
                          4       1   14dyz              0.636998       1.294827
                          4       1   14dz2              0.636998       0.747568

                          5       1   17fx3              0.644663       0.548218
                          5       1   17fx2y             0.644663       1.225852
                          5       1   17fx2z             0.644663       1.225852
                          5       1   17fxy2             0.644663       1.225852
                          5       1   17fxyz             0.644663       2.123239
                          5       1   17fxz2             0.644663       1.225852
                          5       1   17fy3              0.644663       0.548218
                          5       1   17fy2z             0.644663       1.225852
                          5       1   17fyz2             0.644663       1.225852
                          5       1   17fz3              0.644663       0.548218

                          6       1    9px               0.688735       0.894345
                          6       1    9py               0.688735       0.894345
                          6       1    9pz               0.688735       0.894345

                          7       1    2s                1.050557       0.739562

                          8       1   20gx4              1.447489       3.077001
                          8       1   20gx3y             1.447489       8.140980
                          8       1   20gx3z             1.447489       8.140980
                          8       1   20gx2y2            1.447489      10.509960
                          8       1   20gx2yz            1.447489      18.203785
                          8       1   20gx2z2            1.447489      10.509960
                          8       1   20gxy3             1.447489       8.140980
                          8       1   20gxy2z            1.447489      18.203785
                          8       1   20gxyz2            1.447489      18.203785
                          8       1   20gxz3             1.447489       8.140980
                          8       1   20gy4              1.447489       3.077001
                          8       1   20gy3z             1.447489       8.140980
                          8       1   20gy2z2            1.447489      10.509960
                          8       1   20gyz3             1.447489       8.140980
                          8       1   20gz4              1.447489       3.077001

                          9       1   15dx2              1.719528       4.249869
                          9       1   15dxy              1.719528       7.360988
                          9       1   15dxz              1.719528       7.360988
                          9       1   15dy2              1.719528       4.249869
                          9       1   15dyz              1.719528       7.360988
                          9       1   15dz2              1.719528       4.249869

                         10       1   10px               2.690083       4.910742
                         10       1   10py               2.690083       4.910742
                         10       1   10pz               2.690083       4.910742

                         11       1    3s                3.398643       1.783977

                         12       1   18fx3              4.079789      34.824857
                         12       1   18fx2y             4.079789      77.870748
                         12       1   18fx2z             4.079789      77.870748
                         12       1   18fxy2             4.079789      77.870748
                         12       1   18fxyz             4.079789     134.876093
                         12       1   18fxz2             4.079789      77.870748
                         12       1   18fy3              4.079789      34.824857
                         12       1   18fy2z             4.079789      77.870748
                         12       1   18fyz2             4.079789      77.870748
                         12       1   18fz3              4.079789      34.824857

                         13       1   11px               9.102547      22.536879
                         13       1   11py               9.102547      22.536879
                         13       1   11pz               9.102547      22.536879

                         14       1    4s               10.929094       4.283988

                         15       1   16dx2             29.234258     604.951557
                         15       1   16dxy             29.234258    1047.806833
                         15       1   16dxz             29.234258    1047.806833
                         15       1   16dy2             29.234258     604.951557
                         15       1   16dyz             29.234258    1047.806833
                         15       1   16dz2             29.234258     604.951557

                         16       1   12px              30.338365     101.491646
                         16       1   12py              30.338365     101.491646
                         16       1   12pz              30.338365     101.491646

                         17       1    5s               34.879449      10.229097

                         18       1   13px             100.633172     454.324902
                         18       1   13py             100.633172     454.324902
                         18       1   13pz             100.633172     454.324902

                         19       1    6s              111.091943      24.387766

                         20       1    7s              353.642060      58.120993

       Atomic covalent radius [Angstrom]:                                  1.020

       Atomic van der Waals radius [Angstrom]:                             1.800

     The atoms of this atomic kind are PAW atoms (GAPW):
       Hard Gaussian function radius:                                      1.512
       Rho0 radius:                                                        1.512
       Maximum GTO radius used for PAW projector construction:            24.566

     GAPW Soft Basis Set                                  aug-SZV-MOLOPT-ae_soft

       Number of orbital shell sets:                                           3
       Number of orbital shells:                                               8
       Number of primitive Cartesian functions:                                8
       Number of Cartesian basis functions:                                   19
       Number of spherical basis functions:                                   18
       Norm type:                                                              2

       Normalised Cartesian orbitals:

                        Set   Shell   Orbital            Exponent    Coefficient

                          1       1    1s                0.072000       0.000000
                                                         0.148404       0.047043
                                                         0.287959       0.206056
                                                         0.581913       0.071732
                                                         1.300021      -0.154888
                                                         3.466625      -0.128563

                          1       2    2s                0.072000       0.024465
                                                         0.148404       0.270123
                                                         0.287959      -0.286184
                                                         0.581913       0.001423
                                                         1.300021       0.046778
                                                         3.466625       0.000000

                          1       3    2px               0.072000       0.000000
                                                         0.148404       0.013902
                                                         0.287959       0.147021
                                                         0.581913       0.300295
                                                         1.300021       0.150808
                                                         3.466625      -0.123340
                          1       3    2py               0.072000       0.000000
                                                         0.148404       0.013902
                                                         0.287959       0.147021
                                                         0.581913       0.300295
                                                         1.300021       0.150808
                                                         3.466625      -0.123340
                          1       3    2pz               0.072000       0.000000
                                                         0.148404       0.013902
                                                         0.287959       0.147021
                                                         0.581913       0.300295
                                                         1.300021       0.150808
                                                         3.466625      -0.123340

                          1       4    3px               0.072000      -0.066040
                                                         0.148404       0.050064
                                                         0.287959      -0.069730
                                                         0.581913       0.158592
                                                         1.300021      -0.055990
                                                         3.466625       0.000000
                          1       4    3py               0.072000      -0.066040
                                                         0.148404       0.050064
                                                         0.287959      -0.069730
                                                         0.581913       0.158592
                                                         1.300021      -0.055990
                                                         3.466625       0.000000
                          1       4    3pz               0.072000      -0.066040
                                                         0.148404       0.050064
                                                         0.287959      -0.069730
                                                         0.581913       0.158592
                                                         1.300021      -0.055990
                                                         3.466625       0.000000

                          1       5    3dx2              0.072000       0.001679
                                                         0.148404       0.023049
                                                         0.287959       0.065695
                                                         0.581913       0.132541
                                                         1.300021       0.392654
                                                         3.466625       0.000000
                          1       5    3dxy              0.072000       0.002907
                                                         0.148404       0.039921
                                                         0.287959       0.113787
                                                         0.581913       0.229567
                                                         1.300021       0.680096
                                                         3.466625       0.000000
                          1       5    3dxz              0.072000       0.002907
                                                         0.148404       0.039921
                                                         0.287959       0.113787
                                                         0.581913       0.229567
                                                         1.300021       0.680096
                                                         3.466625       0.000000
                          1       5    3dy2              0.072000       0.001679
                                                         0.148404       0.023049
                                                         0.287959       0.065695
                                                         0.581913       0.132541
                                                         1.300021       0.392654
                                                         3.466625       0.000000
                          1       5    3dyz              0.072000       0.002907
                                                         0.148404       0.039921
                                                         0.287959       0.113787
                                                         0.581913       0.229567
                                                         1.300021       0.680096
                                                         3.466625       0.000000
                          1       5    3dz2              0.072000       0.001679
                                                         0.148404       0.023049
                                                         0.287959       0.065695
                                                         0.581913       0.132541
                                                         1.300021       0.392654
                                                         3.466625       0.000000

                          2       1    1s                3.552198       1.097452
                                                         1.628232       0.247277

                          2       2    2px               3.552198       2.960247
                                                         1.628232       0.266650
                          2       2    2py               3.552198       2.960247
                                                         1.628232       0.266650
                          2       2    2pz               3.552198       2.960247
                                                         1.628232       0.266650

                          3       1    1s         

     AE Potential information for                                            ALL

       Description:                                       All-electron potential
                                          Krack, Parrinello, PCCP 2, 2105 (2000)

       Gaussian exponent of the core charge distribution:               2.834467
       Electronic configuration (s p d ...):                           6  10   0

  3. Atomic kind: O                                     Number of atoms:       1

     Orbital Basis Set                                      aug-SZV-MOLOPT-ae-SR

       Number of orbital shell sets:                                           2
       Number of orbital shells:                                               6
       Number of primitive Cartesian functions:                                7
       Number of Cartesian basis functions:                                   15
       Number of spherical basis functions:                                   14
       Norm type:                                                              2

       Normalised Cartesian orbitals:

                        Set   Shell   Orbital            Exponent    Coefficient

                          1       1    1s                0.162492       0.000000
                                                         0.380389       0.241686
                                                         1.169596       0.320234
                                                         5.033151      -0.239413

                          1       2    2s                0.162492       0.120425
                                                         0.380389       0.131001
                                                         1.169596      -0.000041
                                                         5.033151      -0.089217

                          1       3    2px               0.162492       0.000000
                                                         0.380389       0.166903
                                                         1.169596       1.053568
                                                         5.033151       1.675450
                          1       3    2py               0.162492       0.000000
                                                         0.380389       0.166903
                                                         1.169596       1.053568
                                                         5.033151       1.675450
                          1       3    2pz               0.162492       0.000000
                                                         0.380389       0.166903
                                                         1.169596       1.053568
                                                         5.033151       1.675450

                          1       4    3px               0.162492       0.001278
                                                         0.380389       0.422682
                                                         1.169596       0.000775
                                                         5.033151       0.003884
                          1       4    3py               0.162492       0.001278
                                                         0.380389       0.422682
                                                         1.169596       0.000775
                                                         5.033151       0.003884
                          1       4    3pz               0.162492       0.001278
                                                         0.380389       0.422682
                                                         1.169596       0.000775
                                                         5.033151       0.003884

                          1       5    3dx2              0.162492      -0.037898
                                                         0.380389       0.380180
                                                         1.169596       0.208664
                                                         5.033151       1.207157
                          1       5    3dxy              0.162492      -0.065641
                                                         0.380389       0.658491
                                                         1.169596       0.361417
                                                         5.033151       2.090858
                          1       5    3dxz              0.162492      -0.065641
                                                         0.380389       0.658491
                                                         1.169596       0.361417
                                                         5.033151       2.090858
                          1       5    3dy2              0.162492      -0.037898
                                                         0.380389       0.380180
                                                         1.169596       0.208664
                                                         5.033151       1.207157
                          1       5    3dyz              0.162492      -0.065641
                                                         0.380389       0.658491
                                                         1.169596       0.361417
                                                         5.033151       2.090858
                          1       5    3dz2              0.162492      -0.037898
                                                         0.380389       0.380180
                                                         1.169596       0.208664
                                                         5.033151       1.207157

                          2       1    1s              130.709321       4.251943
                                                        23.808866       4.112294
                                                         6.443608       1.281623

     RI Auxiliary Basis Set             RI_aug-SZV-MOLOPT-ae-SR_N_RI_034_s_p_d_f

       Number of orbital shell sets:                                          12
       Number of orbital shells:                                              12
       Number of primitive Cartesian functions:                               12
       Number of Cartesian basis functions:                                   39
       Number of spherical basis functions:                                   34
       Norm type:                                                              2

       Normalised Cartesian orbitals:

                        Set   Shell   Orbital            Exponent    Coefficient

                          1       1    1s                0.437626       0.383475

                          2       1   10dx2              0.833911       1.197758
                          2       1   10dxy              0.833911       2.074578
                          2       1   10dxz              0.833911       2.074578
                          2       1   10dy2              0.833911       1.197758
                          2       1   10dyz              0.833911       2.074578
                          2       1   10dz2              0.833911       1.197758

                          3       1    6px               0.900493       1.250376
                          3       1    6py               0.900493       1.250376
                          3       1    6pz               0.900493       1.250376

                          4       1   12fx3              1.229346       2.342726
                          4       1   12fx2y             1.229346       5.238494
                          4       1   12fx2z             1.229346       5.238494
                          4       1   12fxy2             1.229346       5.238494
                          4       1   12fxyz             1.229346       9.073337
                          4       1   12fxz2             1.229346       5.238494
                          4       1   12fy3              1.229346       2.342726
                          4       1   12fy2z             1.229346       5.238494
                          4       1   12fyz2             1.229346       5.238494
                          4       1   12fz3              1.229346       2.342726

                          5       1    7px               1.580726       2.526451
                          5       1    7py               1.580726       2.526451
                          5       1    7pz               1.580726       2.526451

                          6       1    2s                1.930028       1.167032

                          7       1   11dx2              3.355577      13.693108
                          7       1   11dxy              3.355577      23.717160
                          7       1   11dxz              3.355577      23.717160
                          7       1   11dy2              3.355577      13.693108
                          7       1   11dyz              3.355577      23.717160
                          7       1   11dz2              3.355577      13.693108

                          8       1    3s                7.045462       3.082068

                          9       1    8px               7.187234      16.774219
                          9       1    8py               7.187234      16.774219
                          9       1    8pz               7.187234      16.774219

                         10       1    9px              31.206613     105.135257
                         10       1    9py              31.206613     105.135257
                         10       1    9pz              31.206613     105.135257

                         11       1    4s               33.536295       9.932222

                         12       1    5s              158.844986      31.888950

       Atomic covalent radius [Angstrom]:                                  0.730

       Atomic van der Waals radius [Angstrom]:                             1.520

     The atoms of this atomic kind are PAW atoms (GAPW):
       Hard Gaussian function radius:                                      1.512
       Rho0 radius:                                                        1.512
       Maximum GTO radius used for PAW projector construction:            24.566

     GAPW Soft Basis Set                               aug-SZV-MOLOPT-ae-SR_soft

       Number of orbital shell sets:                                           2
       Number of orbital shells:                                               6
       Number of primitive Cartesian functions:                                3
       Number of Cartesian basis functions:                                   15
       Number of spherical basis functions:                                   14
       Norm type:                                                              2

       Normalised Cartesian orbitals:

                        Set   Shell   Orbital            Exponent    Coefficient

                          1       1    1s                0.162492       0.000000
                                                         0.380389       0.241686
                                                         1.169596       0.320234

                          1       2    2s                0.162492       0.120425
                                                         0.380389       0.131001
                                                         1.169596      -0.000041

                          1       3    2px               0.162492       0.000000
                                                         0.380389       0.166903
                                                         1.169596       1.053568
                          1       3    2py               0.162492       0.000000
                                                         0.380389       0.166903
                                                         1.169596       1.053568
                          1       3    2pz               0.162492       0.000000
                                                         0.380389       0.166903
                                                         1.169596       1.053568

                          1       4    3px               0.162492       0.001278
                                                         0.380389       0.422682
                                                         1.169596       0.000775
                          1       4    3py               0.162492       0.001278
                                                         0.380389       0.422682
                                                         1.169596       0.000775
                          1       4    3pz               0.162492       0.001278
                                                         0.380389       0.422682
                                                         1.169596       0.000775

                          1       5    3dx2              0.162492      -0.037898
                                                         0.380389       0.380180
                                                         1.169596       0.208664
                          1       5    3dxy              0.162492      -0.065641
                                                         0.380389       0.658491
                                                         1.169596       0.361417
                          1       5    3dxz              0.162492      -0.065641
                                                         0.380389       0.658491
                                                         1.169596       0.361417
                          1       5    3dy2              0.162492      -0.037898
                                                         0.380389       0.380180
                                                         1.169596       0.208664
                          1       5    3dyz              0.162492      -0.065641
                                                         0.380389       0.658491
                                                         1.169596       0.361417
                          1       5    3dz2              0.162492      -0.037898
                                                         0.380389       0.380180
                                                         1.169596       0.208664

                          2       1    1s         

     AE Potential information for                                            ALL

       Description:                                       All-electron potential
                                          Krack, Parrinello, PCCP 2, 2105 (2000)

       Gaussian exponent of the core charge distribution:               8.154466
       Electronic configuration (s p d ...):                           4   4   0

  4. Atomic kind: C                                     Number of atoms:       3

     Orbital Basis Set                                      aug-SZV-MOLOPT-ae-SR

       Number of orbital shell sets:                                           2
       Number of orbital shells:                                               6
       Number of primitive Cartesian functions:                                7
       Number of Cartesian basis functions:                                   15
       Number of spherical basis functions:                                   14
       Norm type:                                                              2

       Normalised Cartesian orbitals:

                        Set   Shell   Orbital            Exponent    Coefficient

                          1       1    2s                0.114559       0.000000
                                                         0.222290       0.161536
                                                         0.683483       0.214036
                                                         2.941249      -0.160017

                          1       2    3s                0.114559       0.078076
                                                         0.222290       0.130402
                                                         0.683483      -0.084834
                                                         2.941249       0.041379

                          1       3    3px               0.114559       0.000000
                                                         0.222290       0.085276
                                                         0.683483       0.538304
                                                         2.941249       0.856045
                          1       3    3py               0.114559       0.000000
                                                         0.222290       0.085276
                                                         0.683483       0.538304
                                                         2.941249       0.856045
                          1       3    3pz               0.114559       0.000000
                                                         0.222290       0.085276
                                                         0.683483       0.538304
                                                         2.941249       0.856045

                          1       4    4px               0.114559       0.224492
                                                         0.222290      -0.546182
                                                         0.683483       0.918493
                                                         2.941249      -0.348342
                          1       4    4py               0.114559       0.224492
                                                         0.222290      -0.546182
                                                         0.683483       0.918493
                                                         2.941249      -0.348342
                          1       4    4pz               0.114559       0.224492
                                                         0.222290      -0.546182
                                                         0.683483       0.918493
                                                         2.941249      -0.348342

                          1       5    4dx2              0.114559       0.004023
                                                         0.222290       0.096934
                                                         0.683483       0.116751
                                                         2.941249       0.357653
                          1       5    4dxy              0.114559       0.006968
                                                         0.222290       0.167895
                                                         0.683483       0.202218
                                                         2.941249       0.619473
                          1       5    4dxz              0.114559       0.006968
                                                         0.222290       0.167895
                                                         0.683483       0.202218
                                                         2.941249       0.619473
                          1       5    4dy2              0.114559       0.004023
                                                         0.222290       0.096934
                                                         0.683483       0.116751
                                                         2.941249       0.357653
                          1       5    4dyz              0.114559       0.006968
                                                         0.222290       0.167895
                                                         0.683483       0.202218
                                                         2.941249       0.619473
                          1       5    4dz2              0.114559       0.004023
                                                         0.222290       0.096934
                                                         0.683483       0.116751
                                                         2.941249       0.357653

                          2       1    1s               71.616837       2.707814
                                                        13.045096       2.618880
                                                         3.530512       0.816191

     RI Auxiliary Basis Set             RI_aug-SZV-MOLOPT-ae-SR_N_RI_045_s_p_d_f

       Number of orbital shell sets:                                          15
       Number of orbital shells:                                              15
       Number of primitive Cartesian functions:                               15
       Number of Cartesian basis functions:                                   53
       Number of spherical basis functions:                                   45
       Norm type:                                                              2

       Normalised Cartesian orbitals:

                        Set   Shell   Orbital            Exponent    Coefficient

                          1       1    1s                0.335626       0.314269

                          2       1    7px               0.430431       0.496958
                          2       1    7py               0.430431       0.496958
                          2       1    7pz               0.430431       0.496958

                          3       1   12dx2              0.522083       0.527781
                          3       1   12dxy              0.522083       0.914144
                          3       1   12dxz              0.522083       0.914144
                          3       1   12dy2              0.522083       0.527781
                          3       1   12dyz              0.522083       0.914144
                          3       1   12dz2              0.522083       0.527781

                          4       1    8px               0.557902       0.687287
                          4       1    8py               0.557902       0.687287
                          4       1    8pz               0.557902       0.687287

                          5       1   14fx3              0.588350       0.446308
                          5       1   14fx2y             0.588350       0.997974
                          5       1   14fx2z             0.588350       0.997974
                          5       1   14fxy2             0.588350       0.997974
                          5       1   14fxyz             0.588350       1.728542
                          5       1   14fxz2             0.588350       0.997974
                          5       1   14fy3              0.588350       0.446308
                          5       1   14fy2z             0.588350       0.997974
                          5       1   14fyz2             0.588350       0.997974
                          5       1   14fz3              0.588350       0.446308

                          6       1    2s                1.012193       0.719213

                          7       1    9px               1.595955       2.556913
                          7       1    9py               1.595955       2.556913
                          7       1    9pz               1.595955       2.556913

                          8       1   15fx3              2.519735      11.776133
                          8       1   15fx2y             2.519735      26.332235
                          8       1   15fx2z             2.519735      26.332235
                          8       1   15fxy2             2.519735      26.332235
                          8       1   15fxyz             2.519735      45.608768
                          8       1   15fxz2             2.519735      26.332235
                          8       1   15fy3              2.519735      11.776133
                          8       1   15fy2z             2.519735      26.332235
                          8       1   15fyz2             2.519735      26.332235
                          8       1   15fz3              2.519735      11.776133

                          9       1   13dx2              2.522804       8.312002
                          9       1   13dxy              2.522804      14.396810
                          9       1   13dxz              2.522804      14.396810
                          9       1   13dy2              2.522804       8.312002
                          9       1   13dyz              2.522804      14.396810
                          9       1   13dz2              2.522804       8.312002

                         10       1    3s                3.115568       1.671333

                         11       1   10px               5.069113      10.841891
                         11       1   10py               5.069113      10.841891
                         11       1   10pz               5.069113      10.841891

                         12       1    4s                9.232047       3.774710

                         13       1   11px              15.199704      42.779333
                         13       1   11py              15.199704      42.779333
                         13       1   11pz              15.199704      42.779333

                         14       1    5s               27.130488       8.472338

                         15       1    6s               79.597157      18.992549

       Atomic covalent radius [Angstrom]:                                  0.770

       Atomic van der Waals radius [Angstrom]:                             1.700

     The atoms of this atomic kind are PAW atoms (GAPW):
       Hard Gaussian function radius:                                      1.512
       Rho0 radius:                                                        1.512
       Maximum GTO radius used for PAW projector construction:            24.566

     GAPW Soft Basis Set                               aug-SZV-MOLOPT-ae-SR_soft

       Number of orbital shell sets:                                           2
       Number of orbital shells:                                               6
       Number of primitive Cartesian functions:                                5
       Number of Cartesian basis functions:                                   15
       Number of spherical basis functions:                                   14
       Norm type:                                                              2

       Normalised Cartesian orbitals:

                        Set   Shell   Orbital            Exponent    Coefficient

                          1       1    2s                0.114559       0.000000
                                                         0.222290       0.161536
                                                         0.683483       0.214036
                                                         2.941249      -0.160017

                          1       2    3s                0.114559       0.078076
                                                         0.222290       0.130402
                                                         0.683483      -0.084834
                                                         2.941249       0.041379

                          1       3    3px               0.114559       0.000000
                                                         0.222290       0.085276
                                                         0.683483       0.538304
                                                         2.941249       0.856045
                          1       3    3py               0.114559       0.000000
                                                         0.222290       0.085276
                                                         0.683483       0.538304
                                                         2.941249       0.856045
                          1       3    3pz               0.114559       0.000000
                                                         0.222290       0.085276
                                                         0.683483       0.538304
                                                         2.941249       0.856045

                          1       4    4px               0.114559       0.224492
                                                         0.222290      -0.546182
                                                         0.683483       0.918493
                                                         2.941249      -0.348342
                          1       4    4py               0.114559       0.224492
                                                         0.222290      -0.546182
                                                         0.683483       0.918493
                                                         2.941249      -0.348342
                          1       4    4pz               0.114559       0.224492
                                                         0.222290      -0.546182
                                                         0.683483       0.918493
                                                         2.941249      -0.348342

                          1       5    4dx2              0.114559       0.004023
                                                         0.222290       0.096934
                                                         0.683483       0.116751
                                                         2.941249       0.357653
                          1       5    4dxy              0.114559       0.006968
                                                         0.222290       0.167895
                                                         0.683483       0.202218
                                                         2.941249       0.619473
                          1       5    4dxz              0.114559       0.006968
                                                         0.222290       0.167895
                                                         0.683483       0.202218
                                                         2.941249       0.619473
                          1       5    4dy2              0.114559       0.004023
                                                         0.222290       0.096934
                                                         0.683483       0.116751
                                                         2.941249       0.357653
                          1       5    4dyz              0.114559       0.006968
                                                         0.222290       0.167895
                                                         0.683483       0.202218
                                                         2.941249       0.619473
                          1       5    4dz2              0.114559       0.004023
                                                         0.222290       0.096934
                                                         0.683483       0.116751
                                                         2.941249       0.357653

                          2       1    1s                3.530512       0.816191

[...]
 Natural transition orbitals.
 https://doi.org/10.1063/1.1558471

 M. Krack, M. Parrinello.
 Phys. Chem. Chem. Phys. 2, 2105-2112 (2000).
 All-electron ab-initio molecular dynamics.
 https://doi.org/10.1039/b001167n

 G. Lippert, J. Hutter, M. Parrinello.
 Theor. Chem. Acc. 103, 124-140 (1999).
 The Gaussian and augmented-plane-wave density functional method for ab initio 
 molecular dynamics simulations.
 https://doi.org/10.1007/s002140050523

 J. P. Perdew, K. Burke, M. Ernzerhof.
 Phys. Rev. Lett. 77, 3865-3868 (1996).
 Generalized gradient approximation made simple.
 https://doi.org/10.1103/PhysRevLett.77.3865


 -------------------------------------------------------------------------------
 -                                                                             -
 -                                T I M I N G                                  -
 -                                                                             -
 -------------------------------------------------------------------------------
 SUBROUTINE                       CALLS  ASD         SELF TIME        TOTAL TIME
                                MAXIMUM       AVERAGE  MAXIMUM  AVERAGE  MAXIMUM
 CP2K                                 1  1.0    0.016    0.039  353.887  353.889
 qs_energies                          1  2.0    0.000    0.000  353.545  353.546
 qs_energies_properties               1  3.0    0.000    0.000  254.353  254.354
 tddfpt                               1  4.0    0.000    0.000  254.353  254.354
 tddfpt_energies                      1  5.0    0.000    0.000  254.334  254.335
 tddfpt_davidson_solver               1  6.0    0.000    0.002  253.138  253.139
 tddfpt_compute_Aop_evects            9  7.0    0.000    0.000  251.400  251.401
 fhxc_kernel                          9  8.0    0.007    0.009  221.755  221.771
 fft_wrap_pw1pw2                   4854 11.1    0.096    0.120  134.629  141.504
 fft_wrap_pw1pw2_250               3414 12.2    2.751    3.566  127.138  137.824
 fft3d_ps                          4854 13.1   17.104   23.669  123.724  130.023
 mp_alltoall_z22v                  4854 15.1  100.867  106.870  100.867  106.870
 scf_env_do_scf                       1  3.0    0.000    0.000   98.477   98.505
 scf_env_do_scf_inner_loop           59  4.0    0.001    0.003   98.477   98.505
 pw_poisson_solve                   239  9.5    1.066    1.431   72.013   74.757
 tddfpt_apply_coulomb               180  9.0    0.003    0.004   71.876   74.602
 qs_ks_update_qs_env                 59  5.0    0.000    0.001   72.268   72.283
 rebuild_ks_matrix                   59  6.0    0.000    0.000   72.257   72.271
 qs_ks_build_kohn_sham_matrix        59  7.0    0.009    0.010   72.256   72.271
 qs_rho_update_rho_low              241  8.0    0.003    0.003   71.280   71.292
 calculate_rho_elec                 241  9.0    0.316    0.448   70.619   70.625
 x_to_yz                           1975 13.8    2.196    3.729   53.726   55.871
 yz_to_x                           1919 14.6    1.690    1.927   50.874   55.281
 xc_pw_derive                      1437 11.0    0.012    0.014   53.563   54.735
 tddfpt_apply_xc_analytic           180  9.0    0.282    0.417   47.825   48.505
 density_rs2pw                      241 10.0    0.010    0.011   42.051   44.662
 integrate_v_rspace                 239  9.0    0.006    0.008   43.026   44.088
 potential_pw2rs                    239 10.0    0.024    0.032   42.843   43.131
 transfer_pw2rs                    1196 10.9    0.022    0.030   39.880   40.702
 ps_wavelet_solve                   239 10.5   14.409   19.893   37.075   40.375
 xc_pw_divergence                   239 10.8    0.005    0.006   35.895   36.595
 integrate_four_center              419  9.9   15.393   30.932   34.508   34.576
 mp_waitany                       78828 12.9   28.505   32.966   28.505   32.966
 mp_sync                           2212 11.5   16.781   32.058   16.781   32.058
 tddfpt_apply_hfx                     9  8.0    0.002    0.003   29.163   29.164
 xc_calc_2nd_deriv_analytical      1260 10.0    1.288    1.585   28.013   28.511
 grid_collocate_task_list           241 10.0   25.998   27.719   25.998   27.719
 tddft_hfx_matrix                   360  9.0    0.003    0.011   27.253   27.308
 transfer_rs2pw                    1206 10.9    0.040    0.053   25.516   26.692
 mp_sum_d                          3846  7.9    9.997   24.383    9.997   24.383
 transfer_pw2rs_250                 479 11.7    4.085    4.467   22.733   24.222
 prepare_gapw_den                   240  8.7    0.003    0.004   22.124   23.893
 mp_alltoall_d54                    239 11.5   11.664   22.860   11.664   22.860
 put_rho0_on_grid                   240  9.7    0.329    0.474   19.327   21.099
 qs_vxc_create                       59  8.0    0.001    0.001   19.487   19.487
 xc_vxc_pw_create                    59  9.0    0.123    0.158   19.486   19.486
 transfer_rs2pw_250                 483 11.9    4.464    4.948   16.060   17.364
 integrate_vhg0_rspace              239  9.5    0.160    0.202   14.553   14.783
 mp_alltoall_d45                    240 11.5   11.354   14.060   11.354   14.060
 mp_waitall_1                    480466 13.3   10.784   13.649   10.784   13.649
 fft_wrap_pw1pw2_90                 480 12.0    0.095    0.161    5.877   13.355
 transfer_pw2rs_90                  239 12.0    0.694    0.846    8.922   12.564
 mp_alltoall_d11v                 15724 11.7    8.729   11.613    8.729   11.613
 mp_isend_dm3                      9612 12.9    7.847   11.528    7.847   11.528
 sum_up_and_integrate                59  8.0    0.001    0.001   10.652   10.873
 xc_rho_set_and_dset_create          60 10.0    0.151    0.178    8.803    9.753
 transfer_pw2rs_30                  239 12.0    1.026    1.165    6.983    8.660
 cp2k_distribution_to_z_slices      239 10.5    0.990    1.177    7.296    8.234
 hfx_ks_matrix                       59  8.0    0.001    0.001    7.260    7.285
 pw_integral_ab_c1d_c1d_gs          239 10.5    0.670    0.779    2.451    6.201
 Vh_1c_gg_integrals                 239  9.5    0.021    0.418    2.167    6.008
 gspace_mixing                       58  5.0    0.076    0.107    5.772    5.776
 transfer_rs2pw_90                  241 12.0    0.897    1.041    4.808    5.137
 calculate_xc_2nd_deriv_atom        180  9.0    0.052    0.781    0.108    4.490
 gaVxcgb_GC                         717  9.8    0.029    4.404    0.029    4.404
 rs_grid_zero                      1199 11.9    4.029    4.247    4.029    4.247
 mp_sum_dm                         3697 10.1    3.167    4.228    3.167    4.228
 pw_derive                         2154 11.8    3.605    3.925    3.605    3.925
 transfer_rs2pw_30                  241 12.0    1.333    1.469    3.479    3.727
 pw_copy                           3230 11.0    3.077    3.493    3.077    3.493
 mp_sendrecv_dv                   92062 13.0    2.876    3.164    2.876    3.164
 pw_gather_p                       2401 13.4    2.616    3.153    2.616    3.153
 cp_dbcsr_sm_fm_multiply           1126  8.6    0.013    0.017    2.962    3.123
 pw_scatter_p                      2453 12.8    2.592    2.894    2.592    2.894
 calculate_rho_atom                 720  9.7    0.812    2.676    0.812    2.676
 mp_max_i                           740  4.9    1.159    2.488    1.159    2.488
 mp_sum_dv                        20032  9.0    2.293    2.484    2.293    2.484
 pw_copy_to_array                  2401 13.4    1.749    2.483    1.749    2.483
 broyden_mixing                      58  6.0    2.328    2.373    2.421    2.463
 pw_poisson_set                     240 10.5    0.004    0.005    2.187    2.257
 dbcsr_multiply_generic            1545 10.3    0.036    0.041    1.899    1.937
 dbcsr_complete_redistribute       3714 10.5    0.083    0.126    1.690    1.937
 pw_axpy                           2637 10.8    1.416    1.703    1.416    1.703
 xc_functional_eval                1494 10.9    0.001    0.003    0.817    1.665
 pbe_lda_eval                      1494 11.9    0.816    1.662    0.816    1.662
 parallel_gemm_fm                  1635  8.3    0.001    0.002    1.470    1.593
 parallel_gemm_fm_cosma            1635  9.3    1.469    1.592    1.469    1.592
 pw_zero                           2700 10.6    1.339    1.567    1.339    1.567
 fft_wrap_pw1pw2_30                 480 12.0    0.012    0.015    1.073    1.528
 mp_alltoall_z11v                   960 15.0    1.056    1.488    1.056    1.488
 transfer_pw2rs_10                  239 12.0    0.276    0.310    1.220    1.409
 integrate_four_center_main         419 10.9    0.053    0.283    0.190    1.409
 cp_dbcsr_sm_fm_multiply_core      1126  9.6    0.002    0.002    1.341    1.374
 integrate_four_center_bin        33834 11.8    0.137    1.346    0.137    1.346
 mp_alltoall_i22                   4922 11.5    0.876    1.332    0.876    1.332
 calculate_vxc_atom                  59  8.0    0.021    0.134    1.312    1.313
 pw_copy_from_array                2453 12.8    0.989    1.308    0.989    1.308
 transfer_rs2pw_10                  241 12.0    0.398    0.473    1.128    1.301
 copy_fm_to_dbcsr                  2505  9.6    0.006    0.007    0.851    1.294
 copy_dbcsr_to_fm                  1207  9.4    0.009    0.009    1.117    1.197
 tddfpt_orthonormalize_psi1_psi      10  6.9    0.010    0.012    0.891    1.091
 update_ks_atom                     239  8.8    0.022    0.056    0.876    1.069
 mp_bcast_dm                       2390  9.8    0.854    1.050    0.854    1.050
 qs_scf_new_mos                      59  5.0    0.001    0.001    0.942    0.969
 mp_irecv_dm3                      9612 12.9    0.299    0.919    0.299    0.919
 calc_screening_functions             1 10.0    0.414    0.478    0.835    0.914
 grid_integrate_task_list           239 10.0    0.071    0.894    0.071    0.894
 rs_gather_matrices                 239 10.0    0.003    0.008    0.105    0.879
 yz_to_xz                           478 14.0    0.032    0.041    0.613    0.877
 powell_optimize                 507127 11.0    0.728    0.800    0.728    0.800
 multiply_cannon                   1545 11.3    0.102    0.108    0.751    0.787
 cp_dbcsr_plus_fm_fm_t              239  8.5    0.002    0.002    0.725    0.771
 pw_poisson_rebuild                 239 10.5    0.000    0.000    0.725    0.748
 ps_wavelet_create                    1 10.0    0.000    0.000    0.724    0.748
 RS_z_slice_distribution              1 11.0    0.191    0.213    0.724    0.748
 mp_rank_compare                   4854 14.1    0.695    0.746    0.695    0.746
 prepare_dr1dr                     1260 11.0    0.545    0.739    0.545    0.739
 calc_pair_dist_radii                 1 10.0    0.243    0.402    0.549    0.707
 xz_to_yz                           482 14.0    0.026    0.032    0.501    0.698
 mp_sum_l                          5905 10.6    0.657    0.695    0.657    0.695
 eigensolver_symm                    59  6.0    0.004    0.005    0.667    0.675
 calculate_rho_atom_coeff           241  9.0    0.037    0.081    0.659    0.669
 offload_free_buffer                247 10.3    0.477    0.661    0.477    0.661
 cp_fm_diag_elpa                    110  7.2    0.000    0.000    0.631    0.652
 cp_fm_trace_a1b1t1_aa            16500  8.0    0.028    0.030    0.458    0.624
 cp_fm_diag_elpa_base               110  8.2    0.567    0.578    0.582    0.587
 tddfpt_compute_residual_vects        8  7.0    0.000    0.000    0.583    0.585
 make_m2s                          3090 11.3    0.026    0.028    0.538    0.578
 mp_isend_dv                     141938 13.6    0.163    0.577    0.163    0.577
 fft_wrap_pw1pw2_10                 480 12.0    0.004    0.005    0.445    0.554
 make_images                       3090 12.3    0.079    0.094    0.476    0.517
 multiply_cannon_loop              1545 12.3    0.095    0.101    0.464    0.499
 tddfpt_apply_energy_diff             9  8.0    0.000    0.000    0.482    0.482
 tddfpt_construct_ground_state_       1  6.0    0.000    0.000    0.460    0.471
 integrate_four_center_getP         419 10.9    0.060    0.068    0.406    0.436
 tddfpt_print_nto_analysis            1  6.0    0.002    0.002    0.416    0.431
 mp_isendrecv_dv                 251356 12.3    0.216    0.425    0.216    0.425
 integrate_four_center_dist_KS      419 10.9    0.059    0.069    0.386    0.395
 xc_2nd_deriv_of_r                 1080 10.0    0.000    0.045    0.003    0.358
 mp_cart_sub                       2418 11.3    0.353    0.357    0.353    0.357
 init_scf_run                         1  3.0    0.000    0.000    0.349    0.350
 scf_env_initial_rho_setup            1  4.0    0.000    0.000    0.344    0.344
 make_images_sizes                 3090 13.3    0.002    0.002    0.291    0.321
 mp_alltoall_i44                   3090 14.3    0.289    0.319    0.289    0.319
 scale_and_distribute               478 11.5    0.181    0.303    0.181    0.303
 mp_alltoall_i11v                 12350 11.5    0.140    0.290    0.140    0.290
 qs_energies_init_hamiltonians        1  3.0    0.000    0.000    0.263    0.263
 mp_cart_create                    1929 10.8    0.213    0.233    0.215    0.235
 tddfpt_orthogonalize_psi1_psi0      10  6.9    0.000    0.000    0.207    0.233
 mp_irecv_dv                     140993 13.6    0.079    0.223    0.079    0.223
 dbcsr_desymmetrize_deep           1208 10.3    0.017    0.020    0.193    0.217
 integrate_four_center_load         419 10.9    0.000    0.001    0.184    0.202
 hfx_load_balance                     1 11.0    0.000    0.000    0.183    0.202
 hfx_load_balance_range               1 12.0    0.000    0.000    0.171    0.189
 calculate_rho0_atom                960  9.7    0.163    0.181    0.163    0.181
 multiply_cannon_metrocomm3       37080 13.3    0.051    0.056    0.127    0.180
 cube_transpose_2                   482 14.0    0.008    0.010    0.096    0.178
 calculate_dm_sparse                 59  6.0    0.000    0.000    0.161    0.174
 cp_fm_geeig                         20  7.0    0.001    0.001    0.171    0.173
 create_kernel_env                    1  6.0    0.000    0.000    0.147    0.163
 xc_prep_2nd_deriv                    1  7.0    0.000    0.000    0.147    0.163
 rs_grid_create                     245 10.4    0.001    0.002    0.022    0.159
 offload_create_buffer              247 11.4    0.021    0.158    0.021    0.158
 mp_allgather_i34                  1545 12.3    0.139    0.156    0.139    0.156
 build_core_hamiltonian_matrix        1  4.0    0.000    0.000    0.153    0.153
 overlap_condnum                      1  5.0    0.000    0.000    0.152    0.153
 create_qs_kind_set                   1  2.0    0.000    0.000    0.151    0.151
 dbcsr_finalize                    8755 11.4    0.018    0.025    0.108    0.151
 read_qs_kind                         4  3.0    0.062    0.077    0.151    0.151
 arnoldi_conjugate_gradient           5  6.0    0.003    0.004    0.138    0.138
 pw_scale                           596  9.5    0.099    0.137    0.099    0.137
 tddfpt_is_nonorthogonal_psi1_p       8  7.0    0.000    0.000    0.128    0.128
 qs_init_subsys                       1  2.0    0.001    0.001    0.127    0.127
 qs_env_setup                         1  3.0    0.000    0.000    0.123    0.123
 write_mo_set_to_restart             59  5.0    0.001    0.077    0.063    0.123
 qs_env_rebuild_pw_env                2  3.5    0.000    0.000    0.122    0.123
 pw_env_rebuild                       1  5.0    0.000    0.000    0.122    0.122
 cube_transpose_1                   478 14.0    0.007    0.010    0.073    0.119
 mp_max_d                           221  8.4    0.029    0.118    0.029    0.118
 dbcsr_merge_all                   7030 12.5    0.049    0.094    0.070    0.114
 qs_env_update_s_mstruct              1  4.0    0.001    0.003    0.110    0.110
 multiply_cannon_metrocomm4       35535 13.3    0.052    0.059    0.089    0.110
 cp_fm_maxabsval                    160  8.0    0.000    0.000    0.020    0.109
 pw_grid_setup                        4  6.0    0.000    0.000    0.107    0.107
 pw_grid_setup_internal               4  7.0    0.001    0.002    0.107    0.107
 calculate_rho_core                   1  5.0    0.001    0.002    0.098    0.105
 scf_post_calculation_gpw             1  3.0    0.000    0.000    0.101    0.102
 write_available_results              1  4.0    0.000    0.000    0.101    0.101
 write_mo_free_results                1  5.0    0.002    0.003    0.101    0.101
 multiply_cannon_metrocomm2       32445 13.3    0.047    0.054    0.078    0.101
 parser_read_line                 25662  4.0    0.004    0.005    0.089    0.090
 vxc_of_r_new                       354  9.0    0.000    0.008    0.001    0.088
 parser_read_line_low                38  5.0    0.003    0.023    0.085    0.086
 dbcsr_sym_matrix_vector_mult       995  7.0    0.007    0.008    0.068    0.085
 multiply_cannon_metrocomm1       37080 13.3    0.020    0.022    0.052    0.085
 dbcsr_create_new                 32177 11.7    0.058    0.062    0.078    0.085
 broadcast_input_information         38  6.0    0.011    0.012    0.082    0.084
 cp_fm_write_unformatted             23  7.0    0.079    0.079    0.079    0.079
 make_images_data                  3090 13.3    0.018    0.024    0.043    0.079
 mp_bcast_b_src                     169  8.1    0.057    0.065    0.057    0.065
 write_mo_set_low                     3  6.0    0.000    0.000    0.062    0.062
 cp_fm_symm                          59  7.0    0.055    0.059    0.055    0.059
 tddfpt_compute_ritz_vects            9  7.0    0.004    0.004    0.057    0.059
 rs_scatter_matrices                241 10.0    0.001    0.004    0.006    0.059
 mp_bcast_i_src                     152  7.0    0.046    0.059    0.046    0.059
 cp_fm_redistribute_start           110  8.2    0.017    0.018    0.035    0.057
 pw_grid_sort                         4  8.0    0.035    0.035    0.048    0.054
 cp_fm_redistribute_end             110  8.2    0.013    0.053    0.014    0.053
 external_control                    59  5.0    0.000    0.050    0.052    0.052
 copy_fm_to_dbcsr_bc               2505 10.6    0.013    0.015    0.043    0.051
 multiply_cannon_multrec          37080 13.3    0.018    0.046    0.022    0.049
 mp_sum_iv                          486  7.2    0.028    0.049    0.028    0.049
 cp_fm_triangular_invert             20  8.0    0.045    0.046    0.045    0.046
 hybrid_alltoall_any               4298 13.5    0.018    0.022    0.027    0.046
 cp_fm_cholesky_decompose            20  8.0    0.041    0.043    0.041    0.043
 dbcsr_iterator_start             37726 11.2    0.025    0.029    0.032    0.039
 dbcsr_rep_row_to_rep_col_vec       995  8.0    0.002    0.003    0.017    0.038
 mp_cart_rank                    183968 11.0    0.030    0.038    0.030    0.038
 dbcsr_add_d                       1534  7.1    0.001    0.001    0.006    0.038
 dbcsr_special_finalize            6180 13.3    0.009    0.010    0.029    0.037
 dbcsr_add_anytype                 1534  8.1    0.001    0.005    0.005    0.037
 hirshfeld_integration                1  6.0    0.000    0.002    0.036    0.036
 -------------------------------------------------------------------------------

 The number of warnings for this run is : 1
 
 -------------------------------------------------------------------------------
  **** **** ******  **  PROGRAM ENDED AT                 2025-03-28 05:37:20.236
 ***** ** ***  *** **   PROGRAM RAN ON                     n2cn0245.ab2021.local
 **    ****   ******    PROGRAM RAN BY                                  metdyn02
 ***** **    ** ** **   PROGRAM PROCESS ID                                706379
  **** **  *******  **  PROGRAM STOPPED IN /scratch/hpc-prf-metdyn/metdyn02_Remi
                                           /10_MOL/05_MOL/aUKBqsEOTmq69kFe5R_nOg
                                           /5k_set_final_qzvp/AHOMAM/SZVSR/TDDFT
                                           /1e-4
