SIRIUS 7.5.2, git hash: https://api.github.com/repos/electronic-structure/SIRIUS/git/ref/tags/v7.5.2
 DBCSR| CPU Multiplication driver                                           XSMM (U)
 DBCSR| Multrec recursion limit                                              512 (U)
 DBCSR| Multiplication stack size                                           1000 (D)
 DBCSR| Maximum elements for images                                    UNLIMITED (U)
 DBCSR| Multiplicative factor virtual images                                   1 (U)
 DBCSR| Use multiplication densification                                       T (D)
 DBCSR| Multiplication size stacks                                             3 (U)
 DBCSR| Use memory pool for CPU allocation                                     F (U)
 DBCSR| Number of 3D layers                                               SINGLE (U)
 DBCSR| Use MPI memory allocation                                              F (U)
 DBCSR| Use RMA algorithm                                                      F (U)
 DBCSR| Use Communication thread                                               T (U)
 DBCSR| Communication thread load                                             75 (D)
 DBCSR| MPI: My process id                                                     0
 DBCSR| MPI: Number of processes                                             192
 DBCSR| OMP: Current number of threads                                         4
 DBCSR| OMP: Max number of threads                                             4
 DBCSR| Split modifier for TAS multiplication algorithm                  1.0E+00 (U)


  **** **** ******  **  PROGRAM STARTED AT               2025-03-22 11:32:09.070
 ***** ** ***  *** **   PROGRAM STARTED ON                 n2cn1101.ab2021.local
 **    ****   ******    PROGRAM STARTED BY                              metdyn02
 ***** **    ** ** **   PROGRAM PROCESS ID                               1658929
  **** **  *******  **  PROGRAM STARTED IN /scratch/hpc-prf-metdyn/metdyn02_Remi
                                           /10_MOL/05_MOL/aUKBqsEOTmq69kFe5R_nOg
                                           /5k_set_final_qzvp/FURHUV01/DZVP/TDDF
                                           T/RILIM

 CP2K| version string:                 CP2K version 2025.1 (Development Version)
 CP2K| source code revision number:                                  git:f0c7327
 CP2K| cp2kflags: omp libint fftw3 libxc libgrpp elpa parallel scalapack mpi_f08
 CP2K|             cosma xsmm plumed2 spglib sirius libvori libbqb libvdwxc hdf5
 CP2K| is freely available from                            https://www.cp2k.org/
 CP2K| Program compiled at                          Wed Mar 12 18:25:30 CET 2025
 CP2K| Program compiled on                                              n2login1
 CP2K| Program compiled for                                                local
 CP2K| Data directory path    /opt/software/pc2/EB-SW/software/CP2K/2024.1-foss-
 CP2K| Input file name                                                    GW.inp

 GLOBAL| Force Environment number                                              1
 GLOBAL| Basis set file name            /scratch/hpc-prf-metdyn/metdyn02_Remi/BA
 GLOBAL| Potential file name            /pc2/groups/hpc-prf-metdyn/metdyn02_Remi
 GLOBAL| MM Potential file name                                     MM_POTENTIAL
 GLOBAL| Coordinate file name                                      __STD_INPUT__
 GLOBAL| Method name                                                        CP2K
 GLOBAL| Project name                                                       MoS2
 GLOBAL| Run type                                                         ENERGY
 GLOBAL| FFT library                                                       FFTW3
 GLOBAL| Diagonalization library                                            ELPA
 GLOBAL| DGEMM library                                                      BLAS
 GLOBAL| Minimum number of eigenvectors for ELPA usage                        16
 GLOBAL| Orthonormality check for eigenvectors                          DISABLED
 GLOBAL| Matrix multiplication library                                     COSMA
 GLOBAL| All-to-all communication in single precision                          F
 GLOBAL| FFTs using library dependent lengths                                  F
 GLOBAL| Grid backend                                                       AUTO
 GLOBAL| Global print level                                               MEDIUM
 GLOBAL| MPI I/O enabled                                                       T
 GLOBAL| Total number of message passing processes                           192
 GLOBAL| Number of threads for this process                                    4
 GLOBAL| This output is from process                                           0
 GLOBAL| OpenMP stack size per thread (OMP_STACKSIZE)                    default
 GLOBAL| CPU model name                          AMD EPYC 7763 64-Core Processor
 GLOBAL| CPUID                                                              1002

 MEMORY| system memory details [Kb]
 MEMORY|                        rank 0           min           max       average
 MEMORY| MemTotal            263899260     263899260     263899296     263899267
 MEMORY| MemFree             244086920     242387764     244086920     243203517
 MEMORY| Buffers                 53856         28424        249492        134319
 MEMORY| Cached                5481460       5282336       6664972       5989522
 MEMORY| Slab                  2469468       1997628       2469468       2219793
 MEMORY| SReclaimable           369560        308636        401796        339471
 MEMORY| MemLikelyFree       249991796     248952756     250554464     249666830


 *** Fundamental physical constants (SI units) ***

 *** Literature: B. J. Mohr and B. N. Taylor,
 ***             CODATA recommended values of the fundamental physical
 ***             constants: 2006, Web Version 5.1
 ***             http://physics.nist.gov/constants

 Speed of light in vacuum [m/s]                             2.99792458000000E+08
 Magnetic constant or permeability of vacuum [N/A**2]       1.25663706143592E-06
 Electric constant or permittivity of vacuum [F/m]          8.85418781762039E-12
 Planck constant (h) [J*s]                                  6.62606896000000E-34
 Planck constant (h-bar) [J*s]                              1.05457162825177E-34
 Elementary charge [C]                                      1.60217648700000E-19
 Electron mass [kg]                                         9.10938215000000E-31
 Electron g factor [ ]                                     -2.00231930436220E+00
 Proton mass [kg]                                           1.67262163700000E-27
 Fine-structure constant                                    7.29735253760000E-03
 Rydberg constant [1/m]                                     1.09737315685270E+07
 Avogadro constant [1/mol]                                  6.02214179000000E+23
 Boltzmann constant [J/K]                                   1.38065040000000E-23
 Atomic mass unit [kg]                                      1.66053878200000E-27
 Bohr radius [m]                                            5.29177208590000E-11

 *** Conversion factors ***

 [u] -> [a.u.]                                              1.82288848426455E+03
 [Angstrom] -> [Bohr] = [a.u.]                              1.88972613288564E+00
 [a.u.] = [Bohr] -> [Angstrom]                              5.29177208590000E-01
 [a.u.] -> [s]                                              2.41888432650478E-17
 [a.u.] -> [fs]                                             2.41888432650478E-02
 [a.u.] -> [J]                                              4.35974393937059E-18
 [a.u.] -> [N]                                              8.23872205491840E-08
 [a.u.] -> [K]                                              3.15774647902944E+05
 [a.u.] -> [kJ/mol]                                         2.62549961709828E+03
 [a.u.] -> [kcal/mol]                                       6.27509468713739E+02
 [a.u.] -> [Pa]                                             2.94210107994716E+13
 [a.u.] -> [bar]                                            2.94210107994716E+08
 [a.u.] -> [atm]                                            2.90362800883016E+08
 [a.u.] -> [eV]                                             2.72113838565563E+01
 [a.u.] -> [Hz]                                             6.57968392072181E+15
 [a.u.] -> [1/cm] (wave numbers)                            2.19474631370540E+05
 [a.u./Bohr**2] -> [1/cm]                                   5.14048714338585E+03
 

 CELL_TOP| Volume [angstrom^3]:                                     27000.000000
 CELL_TOP| Vector a [angstrom    30.000     0.000     0.000   |a| =    30.000000
 CELL_TOP| Vector b [angstrom     0.000    30.000     0.000   |b| =    30.000000
 CELL_TOP| Vector c [angstrom     0.000     0.000    30.000   |c| =    30.000000
 CELL_TOP| Angle (b,c), alpha [degree]:                                90.000000
 CELL_TOP| Angle (a,c), beta  [degree]:                                90.000000
 CELL_TOP| Angle (a,b), gamma [degree]:                                90.000000
 CELL_TOP| Numerically orthorhombic:                                         YES
 CELL_TOP| Periodicity                                                      NONE

 GENERATE|  Preliminary Number of Bonds generated:                             0
 GENERATE|  Achieved consistency in connectivity generation.

 CELL| Volume [angstrom^3]:                                         27000.000000
 CELL| Vector a [angstrom]:      30.000     0.000     0.000   |a| =    30.000000
 CELL| Vector b [angstrom]:       0.000    30.000     0.000   |b| =    30.000000
 CELL| Vector c [angstrom]:       0.000     0.000    30.000   |c| =    30.000000
 CELL| Angle (b,c), alpha [degree]:                                    90.000000
 CELL| Angle (a,c), beta  [degree]:                                    90.000000
 CELL| Angle (a,b), gamma [degree]:                                    90.000000
 CELL| Numerically orthorhombic:                                             YES
 CELL| Periodicity                                                          NONE

 CELL_REF| Volume [angstrom^3]:                                     27000.000000
 CELL_REF| Vector a [angstrom    30.000     0.000     0.000   |a| =    30.000000
 CELL_REF| Vector b [angstrom     0.000    30.000     0.000   |b| =    30.000000
 CELL_REF| Vector c [angstrom     0.000     0.000    30.000   |c| =    30.000000
 CELL_REF| Angle (b,c), alpha [degree]:                                90.000000
 CELL_REF| Angle (a,c), beta  [degree]:                                90.000000
 CELL_REF| Angle (a,b), gamma [degree]:                                90.000000
 CELL_REF| Numerically orthorhombic:                                         YES
 CELL_REF| Periodicity                                                      NONE

 *******************************************************************************
 *******************************************************************************
 **                                                                           **
 **     #####                         ##              ##                      **
 **    ##   ##            ##          ##              ##                      **
 **   ##     ##                       ##            ######                    **
 **   ##     ##  ##   ##  ##   #####  ##  ##   ####   ##    #####    #####    **
 **   ##     ##  ##   ##  ##  ##      ## ##   ##      ##   ##   ##  ##   ##   **
 **   ##  ## ##  ##   ##  ##  ##      ####     ###    ##   ######   ######    **
 **    ##  ###   ##   ##  ##  ##      ## ##      ##   ##   ##       ##        **
 **     #######   #####   ##   #####  ##  ##  ####    ##    #####   ##        **
 **           ##                                                    ##        **
 **                                                                           **
 **                                                ... make the atoms dance   **
 **                                                                           **
 **            Copyright (C) by CP2K developers group (2000-2025)             **
 **                      J. Chem. Phys. 152, 194103 (2020)                    **
 **                                                                           **
 *******************************************************************************

 DFT| Spin restricted Kohn-Sham (RKS) calculation                            RKS
 DFT| Multiplicity                                                             1
 DFT| Number of spin states                                                    1
 DFT| Charge                                                                   0
 DFT| Self-interaction correction (SIC)                                       NO
 DFT| Cutoffs: density                                              1.000000E-10
 DFT|          gradient                                             1.000000E-10
 DFT|          tau                                                  1.000000E-10
 DFT|          cutoff_smoothing_range                               0.000000E+00
 DFT| XC density smoothing                                                  NONE
 DFT| XC derivatives                                                          PW

 FUNCTIONAL| PBE:
 FUNCTIONAL| J.P.Perdew, K.Burke, M.Ernzerhof, Phys. Rev. Letter, vol. 77, n 18,
 FUNCTIONAL|  pp. 3865-3868, (1996)sx=0.750sc=1.000{spin unpolarized}           


 QS| Method:                                                                GAPW
 QS| Density plane wave grid type                        NON-SPHERICAL FULLSPACE
 QS| Number of grid levels:                                                    4
 QS| Density cutoff [a.u.]:                                                250.0
 QS| Multi grid cutoff [a.u.]: 1) grid level                               250.0
 QS|                           2) grid level                                83.3
 QS|                           3) grid level                                27.8
 QS|                           4) grid level                                 9.3
 QS| Grid level progression factor:                                          3.0
 QS| Relative density cutoff [a.u.]:                                        50.0
 QS| Interaction thresholds: eps_pgf_orb:                                1.0E-12
 QS|                         eps_filter_matrix:                          0.0E+00
 QS|                         eps_core_charge:                            1.0E-14
 QS|                         eps_rho_gspace:                             1.0E-12
 QS|                         eps_rho_rspace:                             1.0E-12
 QS|                         eps_gvg_rspace:                             1.0E-06
 QS|                         eps_ppl:                                    1.0E-02
 QS|                         eps_ppnl:                                   1.0E-08
 QS| GAPW|      One center basis from orbital basis primitives
 QS| GAPW|                   eps_fit:                                    1.0E-04
 QS| GAPW|                   eps_iso:                                    1.0E-12
 QS| GAPW|                   eps_svd:                                    1.0E-08
 QS| GAPW|                   eps_cpc:                                    1.0E-12
 QS| GAPW|   atom-r-grid: quadrature:                                     GC_LOG
 QS| GAPW|      atom-s-grid:  max l :                                          6
 QS| GAPW|      max_l_rho0 :                                                   2


 ATOMIC KIND INFORMATION

  1. Atomic kind: S                                     Number of atoms:       8

     Orbital Basis Set                                        aug-DZVP-MOLOPT-ae

       Number of orbital shell sets:                                           3
       Number of orbital shells:                                              12
       Number of primitive Cartesian functions:                               18
       Number of Cartesian basis functions:                                   39
       Number of spherical basis functions:                                   34
       Norm type:                                                              2

       Normalised Cartesian orbitals:

                        Set   Shell   Orbital            Exponent    Coefficient

                          1       1    1s                0.070000       0.160238
                                                         0.132026      -0.106319
                                                         0.461903      -0.064590
                                                         2.043261       0.000000
                                                         6.030247       0.000000
                                                        18.817576       0.000000
                                                        61.243244       0.000000
                                                       262.037180       0.000000

                          1       2    2px               0.070000       0.000000
                                                         0.132026      -0.006041
                                                         0.461903       0.020884
                                                         2.043261      -1.163342
                                                         6.030247      -7.192527
                                                        18.817576     -14.902856
                                                        61.243244     -16.017959
                                                       262.037180     -14.606063
                          1       2    2py               0.070000       0.000000
                                                         0.132026      -0.006041
                                                         0.461903       0.020884
                                                         2.043261      -1.163342
                                                         6.030247      -7.192527
                                                        18.817576     -14.902856
                                                        61.243244     -16.017959
                                                       262.037180     -14.606063
                          1       2    2pz               0.070000       0.000000
                                                         0.132026      -0.006041
                                                         0.461903       0.020884
                                                         2.043261      -1.163342
                                                         6.030247      -7.192527
                                                        18.817576     -14.902856
                                                        61.243244     -16.017959
                                                       262.037180     -14.606063

                          1       3    3px               0.070000       0.000000
                                                         0.132026       0.013372
                                                         0.461903       0.460806
                                                         2.043261       0.527227
                                                         6.030247      -0.800963
                                                        18.817576       1.692650
                                                        61.243244      -2.127051
                                                       262.037180       6.627568
                          1       3    3py               0.070000       0.000000
                                                         0.132026       0.013372
                                                         0.461903       0.460806
                                                         2.043261       0.527227
                                                         6.030247      -0.800963
                                                        18.817576       1.692650
                                                        61.243244      -2.127051
                                                       262.037180       6.627568
                          1       3    3pz               0.070000       0.000000
                                                         0.132026       0.013372
                                                         0.461903       0.460806
                                                         2.043261       0.527227
                                                         6.030247      -0.800963
                                                        18.817576       1.692650
                                                        61.243244      -2.127051
                                                       262.037180       6.627568

                          1       4    4px               0.070000       0.000000
                                                         0.132026       0.122461
                                                         0.461903      -0.074630
                                                         2.043261      -0.266435
                                                         6.030247      -0.600117
                                                        18.817576      -2.837173
                                                        61.243244       0.679283
                                                       262.037180      -9.723876
                          1       4    4py               0.070000       0.000000
                                                         0.132026       0.122461
                                                         0.461903      -0.074630
                                                         2.043261      -0.266435
                                                         6.030247      -0.600117
                                                        18.817576      -2.837173
                                                        61.243244       0.679283
                                                       262.037180      -9.723876
                          1       4    4pz               0.070000       0.000000
                                                         0.132026       0.122461
                                                         0.461903      -0.074630
                                                         2.043261      -0.266435
                                                         6.030247      -0.600117
                                                        18.817576      -2.837173
                                                        61.243244       0.679283
                                                       262.037180      -9.723876

                          1       5    5px               0.070000      -0.010761
                                                         0.132026      -0.065366
                                                         0.461903       0.662552
                                                         2.043261       0.000000
                                                         6.030247       0.000000
                                                        18.817576       0.000000
                                                        61.243244       0.000000
                                                       262.037180       0.000000
                          1       5    5py               0.070000      -0.010761
                                                         0.132026      -0.065366
                                                         0.461903       0.662552
                                                         2.043261       0.000000
                                                         6.030247       0.000000
                                                        18.817576       0.000000
                                                        61.243244       0.000000
                                                       262.037180       0.000000
                          1       5    5pz               0.070000      -0.010761
                                                         0.132026      -0.065366
                                                         0.461903       0.662552
                                                         2.043261       0.000000
                                                         6.030247       0.000000
                                                        18.817576       0.000000
                                                        61.243244       0.000000
                                                       262.037180       0.000000

                          1       6    3dx2              0.070000       0.000000
                                                         0.132026       0.010167
                                                         0.461903       0.321348
                                                         2.043261       1.422467
                                                         6.030247      -0.691425
                                                        18.817576       4.642944
                                                        61.243244     -11.887587
                                                       262.037180      63.210336
                          1       6    3dxy              0.070000       0.000000
                                                         0.132026       0.017609
                                                         0.461903       0.556591
                                                         2.043261       2.463785
                                                         6.030247      -1.197583
                                                        18.817576       8.041814
                                                        61.243244     -20.589904
                                                       262.037180     109.483513
                          1       6    3dxz              0.070000       0.000000
                                                         0.132026       0.017609
                                                         0.461903       0.556591
                                                         2.043261       2.463785
                                                         6.030247      -1.197583
                                                        18.817576       8.041814
                                                        61.243244     -20.589904
                                                       262.037180     109.483513
                          1       6    3dy2              0.070000       0.000000
                                                         0.132026       0.010167
                                                         0.461903       0.321348
                                                         2.043261       1.422467
                                                         6.030247      -0.691425
                                                        18.817576       4.642944
                                                        61.243244     -11.887587
                                                       262.037180      63.210336
                          1       6    3dyz              0.070000       0.000000
                                                         0.132026       0.017609
                                                         0.461903       0.556591
                                                         2.043261       2.463785
                                                         6.030247      -1.197583
                                                        18.817576       8.041814
                                                        61.243244     -20.589904
                                                       262.037180     109.483513
                          1       6    3dz2              0.070000       0.000000
                                                         0.132026       0.010167
                                                         0.461903       0.321348
                                                         2.043261       1.422467
                                                         6.030247      -0.691425
                                                        18.817576       4.642944
                                                        61.243244     -11.887587
                                                       262.037180      63.210336

                          1       7    4dx2              0.070000       0.004993
                                                         0.132026       0.031835
                                                         0.461903       0.041246
                                                         2.043261       0.000000
                                                         6.030247       0.000000
                                                        18.817576       0.000000
                                                        61.243244       0.000000
                                                       262.037180       0.000000
                          1       7    4dxy              0.070000       0.008648
                                                         0.132026       0.055140
                                                         0.461903       0.071440
                                                         2.043261       0.000000
                                                         6.030247       0.000000
                                                        18.817576       0.000000
                                                        61.243244       0.000000
                                                       262.037180       0.000000
                          1       7    4dxz              0.070000       0.008648
                                                         0.132026       0.055140
                                                         0.461903       0.071440
                                                         2.043261       0.000000
                                                         6.030247       0.000000
                                                        18.817576       0.000000
                                                        61.243244       0.000000
                                                       262.037180       0.000000
                          1       7    4dy2              0.070000       0.004993
                                                         0.132026       0.031835
                                                         0.461903       0.041246
                                                         2.043261       0.000000
                                                         6.030247       0.000000
                                                        18.817576       0.000000
                                                        61.243244       0.000000
                                                       262.037180       0.000000
                          1       7    4dyz              0.070000       0.008648
                                                         0.132026       0.055140
                                                         0.461903       0.071440
                                                         2.043261       0.000000
                                                         6.030247       0.000000
                                                        18.817576       0.000000
                                                        61.243244       0.000000
                                                       262.037180       0.000000
                          1       7    4dz2              0.070000       0.004993
                                                         0.132026       0.031835
                                                         0.461903       0.041246
                                                         2.043261       0.000000
                                                         6.030247       0.000000
                                                        18.817576       0.000000
                                                        61.243244       0.000000
                                                       262.037180       0.000000

                          1       8    4fx3              0.070000       0.001179
                                                         0.132026       0.004915
                                                         0.461903       0.162520
                                                         2.043261       0.000000
                                                         6.030247       0.000000
                                                        18.817576       0.000000
                                                        61.243244       0.000000
                                                       262.037180       0.000000
                          1       8    4fx2y             0.070000       0.002636
                                                         0.132026       0.010991
                                                         0.461903       0.363406
                                                         2.043261       0.000000
                                                         6.030247       0.000000
                                                        18.817576       0.000000
                                                        61.243244       0.000000
                                                       262.037180       0.000000
                          1       8    4fx2z             0.070000       0.002636
                                                         0.132026       0.010991
                                                         0.461903       0.363406
                                                         2.043261       0.000000
                                                         6.030247       0.000000
                                                        18.817576       0.000000
                                                        61.243244       0.000000
                                                       262.037180       0.000000
                          1       8    4fxy2             0.070000       0.002636
                                                         0.132026       0.010991
                                                         0.461903       0.363406
                                                         2.043261       0.000000
                                                         6.030247       0.000000
                                                        18.817576       0.000000
                                                        61.243244       0.000000
                                                       262.037180       0.000000
                          1       8    4fxyz             0.070000       0.004567
                                                         0.132026       0.019037
                                                         0.461903       0.629438
                                                         2.043261       0.000000
                                                         6.030247       0.000000
                                                        18.817576       0.000000
                                                        61.243244       0.000000
                                                       262.037180       0.000000
                          1       8    4fxz2             0.070000       0.002636
                                                         0.132026       0.010991
                                                         0.461903       0.363406
                                                         2.043261       0.000000
                                                         6.030247       0.000000
                                                        18.817576       0.000000
                                                        61.243244       0.000000
                                                       262.037180       0.000000
                          1       8    4fy3              0.070000       0.001179
                                                         0.132026       0.004915
                                                         0.461903       0.162520
                                                         2.043261       0.000000
                                                         6.030247       0.000000
                                                        18.817576       0.000000
                                                        61.243244       0.000000
                                                       262.037180       0.000000
                          1       8    4fy2z             0.070000       0.002636
                                                         0.132026       0.010991
                                                         0.461903       0.363406
                                                         2.043261       0.000000
                                                         6.030247       0.000000
                                                        18.817576       0.000000
                                                        61.243244       0.000000
                                                       262.037180       0.000000
                          1       8    4fyz2             0.070000       0.002636
                                                         0.132026       0.010991
                                                         0.461903       0.363406
                                                         2.043261       0.000000
                                                         6.030247       0.000000
                                                        18.817576       0.000000
                                                        61.243244       0.000000
                                                       262.037180       0.000000
                          1       8    4fz3              0.070000       0.001179
                                                         0.132026       0.004915
                                                         0.461903       0.162520
                                                         2.043261       0.000000
                                                         6.030247       0.000000
                                                        18.817576       0.000000
                                                        61.243244       0.000000
                                                       262.037180       0.000000

                          2       1    1s               45.482850      -1.175639
                                                         4.876333       1.431452
                                                         1.864066       0.572778
                                                         0.430250      -0.034078
                                                         0.152872       0.004775

                          2       2    2s               45.482850      -0.314552
                                                         4.876333       0.236776
                                                         1.864066      -0.009167
                                                         0.430250       0.282804
                                                         0.152872       0.044200

                          2       3    3s               45.482850       0.143312
                                                         4.876333      -0.094249
                                                         1.864066      -0.118759
                                                         0.430250      -0.172982
                                                         0.152872       0.236834

                          3       1    1s             9184.968607      -3.488008
                                                      1381.514008      -6.811623
                                                       313.892819      -9.517673
                                                        87.514579     -10.059465
                                                        25.931396      -3.470689

     RI Auxiliary Basis Set             RI_aug-DZVP-MOLOPT-ae_N_RI_112_s_p_d_f_g

       Number of orbital shell sets:                                          26
       Number of orbital shells:                                              26
       Number of primitive Cartesian functions:                               26
       Number of Cartesian basis functions:                                  150
       Number of spherical basis functions:                                  112
       Norm type:                                                              2

       Normalised Cartesian orbitals:

                        Set   Shell   Orbital            Exponent    Coefficient

                          1       1   19fx3              0.196223       0.037726
                          1       1   19fx2y             0.196223       0.084358
                          1       1   19fx2z             0.196223       0.084358
                          1       1   19fxy2             0.196223       0.084358
                          1       1   19fxyz             0.196223       0.146112
                          1       1   19fxz2             0.196223       0.084358
                          1       1   19fy3              0.196223       0.037726
                          1       1   19fy2z             0.196223       0.084358
                          1       1   19fyz2             0.196223       0.084358
                          1       1   19fz3              0.196223       0.037726

                          2       1    1s                0.274731       0.270452

                          3       1    8px               0.297410       0.313065
                          3       1    8py               0.297410       0.313065
                          3       1    8pz               0.297410       0.313065

                          4       1   14dx2              0.342012       0.251757
                          4       1   14dxy              0.342012       0.436056
                          4       1   14dxz              0.342012       0.436056
                          4       1   14dy2              0.342012       0.251757
                          4       1   14dyz              0.342012       0.436056
                          4       1   14dz2              0.342012       0.251757

                          5       1   24gx4              0.391475       0.084405
                          5       1   24gx3y             0.391475       0.223316
                          5       1   24gx3z             0.391475       0.223316
                          5       1   24gx2y2            0.391475       0.288299
                          5       1   24gx2yz            0.391475       0.499349
                          5       1   24gx2z2            0.391475       0.288299
                          5       1   24gxy3             0.391475       0.223316
                          5       1   24gxy2z            0.391475       0.499349
                          5       1   24gxyz2            0.391475       0.499349
                          5       1   24gxz3             0.391475       0.223316
                          5       1   24gy4              0.391475       0.084405
                          5       1   24gy3z             0.391475       0.223316
                          5       1   24gy2z2            0.391475       0.288299
                          5       1   24gyz3             0.391475       0.223316
                          5       1   24gz4              0.391475       0.084405

                          6       1    2s                0.450192       0.391705

                          7       1   20fx3              0.475207       0.276021
                          7       1   20fx2y             0.475207       0.617201
                          7       1   20fx2z             0.475207       0.617201
                          7       1   20fxy2             0.475207       0.617201
                          7       1   20fxyz             0.475207       1.069024
                          7       1   20fxz2             0.475207       0.617201
                          7       1   20fy3              0.475207       0.276021
                          7       1   20fy2z             0.475207       0.617201
                          7       1   20fyz2             0.475207       0.617201
                          7       1   20fz3              0.475207       0.276021

                          8       1    9px               0.556661       0.685375
                          8       1    9py               0.556661       0.685375
                          8       1    9pz               0.556661       0.685375

                          9       1   25gx4              0.798707       0.599792
                          9       1   25gx3y             0.798707       1.586901
                          9       1   25gx3z             0.798707       1.586901
                          9       1   25gx2y2            0.798707       2.048680
                          9       1   25gx2yz            0.798707       3.548418
                          9       1   25gx2z2            0.798707       2.048680
                          9       1   25gxy3             0.798707       1.586901
                          9       1   25gxy2z            0.798707       3.548418
                          9       1   25gxyz2            0.798707       3.548418
                          9       1   25gxz3             0.798707       1.586901
                          9       1   25gy4              0.798707       0.599792
                          9       1   25gy3z             0.798707       1.586901
                          9       1   25gy2z2            0.798707       2.048680
                          9       1   25gyz3             0.798707       1.586901
                          9       1   25gz4              0.798707       0.599792

                         10       1   15dx2              0.868904       1.287093
                         10       1   15dxy              0.868904       2.229311
                         10       1   15dxz              0.868904       2.229311
                         10       1   15dy2              0.868904       1.287093
                         10       1   15dyz              0.868904       2.229311
                         10       1   15dz2              0.868904       1.287093

                         11       1   21fx3              1.110564       1.863920
                         11       1   21fx2y             1.110564       4.167853
                         11       1   21fx2z             1.110564       4.167853
                         11       1   21fxy2             1.110564       4.167853
                         11       1   21fxyz             1.110564       7.218933
                         11       1   21fxz2             1.110564       4.167853
                         11       1   21fy3              1.110564       1.863920
                         11       1   21fy2z             1.110564       4.167853
                         11       1   21fyz2             1.110564       4.167853
                         11       1   21fz3              1.110564       1.863920

                         12       1    3s                1.576636       1.002787

                         13       1   10px               1.661104       2.688042
                         13       1   10py               1.661104       2.688042
                         13       1   10pz               1.661104       2.688042

                         14       1   26gx4              1.699549       4.784683
                         14       1   26gx3y             1.699549      12.659081
                         14       1   26gx3z             1.699549      12.659081
                         14       1   26gx2y2            1.699549      16.342804
                         14       1   26gx2yz            1.699549      28.306566
                         14       1   26gx2z2            1.699549      16.342804
                         14       1   26gxy3             1.699549      12.659081
                         14       1   26gxy2z            1.699549      28.306566
                         14       1   26gxyz2            1.699549      28.306566
                         14       1   26gxz3             1.699549      12.659081
                         14       1   26gy4              1.699549       4.784683
                         14       1   26gy3z             1.699549      12.659081
                         14       1   26gy2z2            1.699549      16.342804
                         14       1   26gyz3             1.699549      12.659081
                         14       1   26gz4              1.699549       4.784683

                         15       1   16dx2              1.790525       4.561684
                         15       1   16dxy              1.790525       7.901069
                         15       1   16dxz              1.790525       7.901069
                         15       1   16dy2              1.790525       4.561684
                         15       1   16dyz              1.790525       7.901069
                         15       1   16dz2              1.790525       4.561684

                         16       1   22fx3              2.481450      11.377374
                         16       1   22fx2y             2.481450      25.440582
                         16       1   22fx2z             2.481450      25.440582
                         16       1   22fxy2             2.481450      25.440582
                         16       1   22fxyz             2.481450      44.064381
                         16       1   22fxz2             2.481450      25.440582
                         16       1   22fy3              2.481450      11.377374
                         16       1   22fy2z             2.481450      25.440582
                         16       1   22fyz2             2.481450      25.440582
                         16       1   22fz3              2.481450      11.377374

                         17       1   23fx3              5.859468      78.638518
                         17       1   23fx2y             5.859468     175.841073
                         17       1   23fx2z             5.859468     175.841073
                         17       1   23fxy2             5.859468     175.841073
                         17       1   23fxyz             5.859468     304.565672
                         17       1   23fxz2             5.859468     175.841073
                         17       1   23fy3              5.859468      78.638518
                         17       1   23fy2z             5.859468     175.841073
                         17       1   23fyz2             5.859468     175.841073
                         17       1   23fz3              5.859468      78.638518

                         18       1    4s                6.121014       2.773496

                         19       1   11px               6.368076      14.419507
                         19       1   11py               6.368076      14.419507
                         19       1   11pz               6.368076      14.419507

                         20       1   17dx2              8.086646      63.826974
                         20       1   17dxy              8.086646     110.551561
                         20       1   17dxz              8.086646     110.551561
                         20       1   17dy2              8.086646      63.826974
                         20       1   17dyz              8.086646     110.551561
                         20       1   17dz2              8.086646      63.826974

                         21       1   12px              21.758493      66.984774
                         21       1   12py              21.758493      66.984774
                         21       1   12pz              21.758493      66.984774

                         22       1    5s               24.978089       7.963051

                         23       1   18dx2             31.343162     683.375459
                         23       1   18dxy             31.343162    1183.641015
                         23       1   18dxz             31.343162    1183.641015
                         23       1   18dy2             31.343162     683.375459
                         23       1   18dyz             31.343162    1183.641015
                         23       1   18dz2             31.343162     683.375459

                         24       1   13px              70.358059     290.457368
                         24       1   13py              70.358059     290.457368
                         24       1   13pz              70.358059     290.457368

                         25       1    6s               95.478130      21.768977

                         26       1    7s              351.262033      57.827378

       Atomic covalent radius [Angstrom]:                                  1.020

       Atomic van der Waals radius [Angstrom]:                             1.800

     The atoms of this atomic kind are PAW atoms (GAPW):
       Hard Gaussian function radius:                                      1.512
       Rho0 radius:                                                        1.512
       Maximum GTO radius used for PAW projector construction:            24.566

     GAPW Soft Basis Set                                 aug-DZVP-MOLOPT-ae_soft

       Number of orbital shell sets:                                           3
       Number of orbital shells:                                              12
       Number of primitive Cartesian functions:                                7
       Number of Cartesian basis functions:                                   39
       Number of spherical basis functions:                                   34
       Norm type:                                                              2

       Normalised Cartesian orbitals:

                        Set   Shell   Orbital            Exponent    Coefficient

                          1       1    1s                0.070000       0.160238
                                                         0.132026      -0.106319
                                                         0.461903      -0.064590
                                                         2.043261       0.000000

                          1       2    2px               0.070000       0.000000
                                                         0.132026      -0.006041
                                                         0.461903       0.020884
                                                         2.043261      -1.163342
                          1       2    2py               0.070000       0.000000
                                                         0.132026      -0.006041
                                                         0.461903       0.020884
                                                         2.043261      -1.163342
                          1       2    2pz               0.070000       0.000000
                                                         0.132026      -0.006041
                                                         0.461903       0.020884
                                                         2.043261      -1.163342

                          1       3    3px               0.070000       0.000000
                                                         0.132026       0.013372
                                                         0.461903       0.460806
                                                         2.043261       0.527227
                          1       3    3py               0.070000       0.000000
                                                         0.132026       0.013372
                                                         0.461903       0.460806
                                                         2.043261       0.527227
                          1       3    3pz               0.070000       0.000000
                                                         0.132026       0.013372
                                                         0.461903       0.460806
                                                         2.043261       0.527227

                          1       4    4px               0.070000       0.000000
                                                         0.132026       0.122461
                                                         0.461903      -0.074630
                                                         2.043261      -0.266435
                          1       4    4py               0.070000       0.000000
                                                         0.132026       0.122461
                                                         0.461903      -0.074630
                                                         2.043261      -0.266435
                          1       4    4pz               0.070000       0.000000
                                                         0.132026       0.122461
                                                         0.461903      -0.074630
                                                         2.043261      -0.266435

                          1       5    5px               0.070000      -0.010761
                                                         0.132026      -0.065366
                                                         0.461903       0.662552
                                                         2.043261       0.000000
                          1       5    5py               0.070000      -0.010761
                                                         0.132026      -0.065366
                                                         0.461903       0.662552
                                                         2.043261       0.000000
                          1       5    5pz               0.070000      -0.010761
                                                         0.132026      -0.065366
                                                         0.461903       0.662552
                                                         2.043261       0.000000

                          1       6    3dx2              0.070000       0.000000
                                                         0.132026       0.010167
                                                         0.461903       0.321348
                                                         2.043261       1.422467
                          1       6    3dxy              0.070000       0.000000
                                                         0.132026       0.017609
                                                         0.461903       0.556591
                                                         2.043261       2.463785
                          1       6    3dxz              0.070000       0.000000
                                                         0.132026       0.017609
                                                         0.461903       0.556591
                                                         2.043261       2.463785
                          1       6    3dy2              0.070000       0.000000
                                                         0.132026       0.010167
                                                         0.461903       0.321348
                                                         2.043261       1.422467
                          1       6    3dyz              0.070000       0.000000
                                                         0.132026       0.017609
                                                         0.461903       0.556591
                                                         2.043261       2.463785
                          1       6    3dz2              0.070000       0.000000
                                                         0.132026       0.010167
                                                         0.461903       0.321348
                                                         2.043261       1.422467

                          1       7    4dx2              0.070000       0.004993
                                                         0.132026       0.031835
                                                         0.461903       0.041246
                                                         2.043261       0.000000
                          1       7    4dxy              0.070000       0.008648
                                                         0.132026       0.055140
                                                         0.461903       0.071440
                                                         2.043261       0.000000
                          1       7    4dxz              0.070000       0.008648
                                                         0.132026       0.055140
                                                         0.461903       0.071440
                                                         2.043261       0.000000
                          1       7    4dy2              0.070000       0.004993
                                                         0.132026       0.031835
                                                         0.461903       0.041246
                                                         2.043261       0.000000
                          1       7    4dyz              0.070000       0.008648
                                                         0.132026       0.055140
                                                         0.461903       0.071440
                                                         2.043261       0.000000
                          1       7    4dz2              0.070000       0.004993
                                                         0.132026       0.031835
                                                         0.461903       0.041246
                                                         2.043261       0.000000

                          1       8    4fx3              0.070000       0.001179
                                                         0.132026       0.004915
                                                         0.461903       0.162520
                                                         2.043261       0.000000
                          1       8    4fx2y             0.070000       0.002636
                                                         0.132026       0.010991
                                                         0.461903       0.363406
                                                         2.043261       0.000000
                          1       8    4fx2z             0.070000       0.002636
                                                         0.132026       0.010991
                                                         0.461903       0.363406
                                                         2.043261       0.000000
                          1       8    4fxy2             0.070000       0.002636
                                                         0.132026       0.010991
                                                         0.461903       0.363406
                                                         2.043261       0.000000
                          1       8    4fxyz             0.070000       0.004567
                                                         0.132026       0.019037
                                                         0.461903       0.629438
                                                         2.043261       0.000000
                          1       8    4fxz2             0.070000       0.002636
                                                         0.132026       0.010991
                                                         0.461903       0.363406
                                                         2.043261       0.000000
                          1       8    4fy3              0.070000       0.001179
                                                         0.132026       0.004915
                                                         0.461903       0.162520
                                                         2.043261       0.000000
                          1       8    4fy2z             0.070000       0.002636
                                                         0.132026       0.010991
                                                         0.461903       0.363406
                                                         2.043261       0.000000
                          1       8    4fyz2             0.070000       0.002636
                                                         0.132026       0.010991
                                                         0.461903       0.363406
                                                         2.043261       0.000000
                          1       8    4fz3              0.070000       0.001179
                                                         0.132026       0.004915
                                                         0.461903       0.162520
                                                         2.043261       0.000000

                          2       1    1s                1.864066       0.572778
                                                         0.430250      -0.034078
                                                         0.152872       0.004775

                          2       2    2s                1.864066      -0.009167
                                                         0.430250       0.282804
                                                         0.152872       0.044200

                          2       3    3s                1.864066      -0.118759
                                                         0.430250      -0.172982
                                                         0.152872       0.236834

                          3       1    1s         

     AE Potential information for                                            ALL

       Description:                                       All-electron potential
                                          Krack, Parrinello, PCCP 2, 2105 (2000)

       Gaussian exponent of the core charge distribution:               2.834467
       Electronic configuration (s p d ...):                           6  10   0


 MOLECULE KIND INFORMATION


 All atoms are their own molecule, skipping detailed information


 TOTAL NUMBERS AND MAXIMUM NUMBERS

  Total number of            - Atomic kinds:                                   1
                             - Atoms:                                          8
                             - Shell sets:                                    24
                             - Shells:                                        96
                             - Primitive Cartesian functions:                144
                             - Cartesian basis functions:                    312
                             - Spherical basis functions:                    272

  Maximum angular momentum of the orbital basis functions:                     3


 MODULE QUICKSTEP: ATOMIC COORDINATES IN ANGSTROM

   Atom Kind Element         X             Y             Z       Z(eff)     Mass
      1    1 S    16     14.033734     12.795512     15.369016  16.0000  32.0650
      2    1 S    16     12.872491     14.086820     14.245194  16.0000  32.0650
      3    1 S    16     12.752259     15.913229     15.209090  16.0000  32.0650
      4    1 S    16     14.154014     17.204488     14.404904  16.0000  32.0650
      5    1 S    16     15.966266     12.795512     14.630984  16.0000  32.0650
      6    1 S    16     17.127509     14.086820     15.754806  16.0000  32.0650
      7    1 S    16     17.247741     15.913229     14.790910  16.0000  32.0650
      8    1 S    16     15.845986     17.204488     15.595096  16.0000  32.0650



 SCF PARAMETERS         Density guess:                                    ATOMIC
                        --------------------------------------------------------
                        max_scf:                                             500
                        max_scf_history:                                       0
                        max_diis:                                              4
                        --------------------------------------------------------
                        eps_scf:                                        1.00E-06
                        eps_scf_history:                                0.00E+00
                        eps_diis:                                       1.00E-01
                        eps_eigval:                                     1.00E-05
                        --------------------------------------------------------
                        level_shift [a.u.]:                             0.000000
                        added MOs                                       208    0
                        --------------------------------------------------------
                        Mixing method:                            BROYDEN_MIXING
                                                charge density mixing in g-space
                        --------------------------------------------------------
                        No outer SCF

 PW_GRID| Information for grid number                                          1
 PW_GRID| Grid distributed over                                   192 processors
 PW_GRID| Real space group dimensions                                   192    1
 PW_GRID| the grid is blocked:                                                NO
 PW_GRID| Cutoff [a.u.]                                                    250.0
 PW_GRID| spherical cutoff:                                                   NO
 PW_GRID|   Bounds   1           -202     202                Points:         405
 PW_GRID|   Bounds   2           -202     202                Points:         405
 PW_GRID|   Bounds   3           -202     202                Points:         405
 PW_GRID| Volume element (a.u.^3)  0.2743E-02     Volume (a.u.^3)    182205.0337
 PW_GRID| Grid span                                                    FULLSPACE
 PW_GRID|   Distribution                         Average         Max         Min
 PW_GRID|   G-Vectors                           345990.2      346275      345870
 PW_GRID|   G-Rays                                 854.3         855         854
 PW_GRID|   Real Space Points                   345990.2      492075      328050

 PW_GRID| Information for grid number                                          2
 PW_GRID| Number of the reference grid                                         1
 PW_GRID| Grid distributed over                                   192 processors
 PW_GRID| Real space group dimensions                                   192    1
 PW_GRID| the grid is blocked:                                                NO
 PW_GRID| Cutoff [a.u.]                                                     83.3
 PW_GRID| spherical cutoff:                                                   NO
 PW_GRID|   Bounds   1           -120     119                Points:         240
 PW_GRID|   Bounds   2           -120     119                Points:         240
 PW_GRID|   Bounds   3           -120     119                Points:         240
 PW_GRID| Volume element (a.u.^3)  0.1318E-01     Volume (a.u.^3)    182205.0337
 PW_GRID| Grid span                                                    FULLSPACE
 PW_GRID|   Distribution                         Average         Max         Min
 PW_GRID|   G-Vectors                            72000.0       72240       71760
 PW_GRID|   G-Rays                                 300.0         301         299
 PW_GRID|   Real Space Points                    72000.0      115200       57600

 PW_GRID| Information for grid number                                          3
 PW_GRID| Number of the reference grid                                         1
 PW_GRID| Grid distributed over                                   192 processors
 PW_GRID| Real space group dimensions                                    12   16
 PW_GRID| the grid is blocked:                                                NO
 PW_GRID| Cutoff [a.u.]                                                     27.8
 PW_GRID| spherical cutoff:                                                   NO
 PW_GRID|   Bounds   1            -67      67                Points:         135
 PW_GRID|   Bounds   2            -67      67                Points:         135
 PW_GRID|   Bounds   3            -67      67                Points:         135
 PW_GRID| Volume element (a.u.^3)  0.7406E-01     Volume (a.u.^3)    182205.0337
 PW_GRID| Grid span                                                    FULLSPACE
 PW_GRID|   Distribution                         Average         Max         Min
 PW_GRID|   G-Vectors                            12814.5       12960       12690
 PW_GRID|   G-Rays                                  94.9          96          94
 PW_GRID|   Real Space Points                    12814.5       14580       11880

 PW_GRID| Information for grid number                                          4
 PW_GRID| Number of the reference grid                                         1
 PW_GRID| Grid distributed over                                   192 processors
 PW_GRID| Real space group dimensions                                    12   16
 PW_GRID| the grid is blocked:                                                NO
 PW_GRID| Cutoff [a.u.]                                                      9.3
 PW_GRID| spherical cutoff:                                                   NO
 PW_GRID|   Bounds   1            -40      39                Points:          80
 PW_GRID|   Bounds   2            -40      39                Points:          80
 PW_GRID|   Bounds   3            -40      39                Points:          80
 PW_GRID| Volume element (a.u.^3)  0.3559         Volume (a.u.^3)    182205.0337
 PW_GRID| Grid span                                                    FULLSPACE
 PW_GRID|   Distribution                         Average         Max         Min
 PW_GRID|   G-Vectors                             2666.7        2800        2560
 PW_GRID|   G-Rays                                  33.3          35          32
 PW_GRID|   Real Space Points                     2666.7        2800        2400

 POISSON| Solver                                                         WAVELET
 POISSON| Wavelet| Scaling function                                           40
 POISSON| Periodicity                                                       NONE

 RS_GRID| Information for grid number                                          1
 RS_GRID|   Bounds   1           -202     202                Points:         405
 RS_GRID|   Bounds   2           -202     202                Points:         405
 RS_GRID|   Bounds   3           -202     202                Points:         405
 RS_GRID| Real space distribution over                                  4 groups
 RS_GRID| Real space distribution along direction                              1
 RS_GRID| Border size                                                         34
 RS_GRID| Real space distribution over                                  6 groups
 RS_GRID| Real space distribution along direction                              2
 RS_GRID| Border size                                                         34
 RS_GRID| Real space distribution over                                  8 groups
 RS_GRID| Real space distribution along direction                              3
 RS_GRID| Border size                                                         34
 RS_GRID|   Distribution                         Average         Max         Min
 RS_GRID|   Planes                                 169.2         170         169
 RS_GRID|   Distribution                         Average         Max         Min
 RS_GRID|   Planes                                 135.5         136         135
 RS_GRID|   Distribution                         Average         Max         Min
 RS_GRID|   Planes                                 118.6         119         118

 RS_GRID| Information for grid number                                          2
 RS_GRID|   Bounds   1           -120     119                Points:         240
 RS_GRID|   Bounds   2           -120     119                Points:         240
 RS_GRID|   Bounds   3           -120     119                Points:         240
 RS_GRID| Real space distribution over                                  4 groups
 RS_GRID| Real space distribution along direction                              1
 RS_GRID| Border size                                                         38
 RS_GRID| Real space distribution over                                  6 groups
 RS_GRID| Real space distribution along direction                              2
 RS_GRID| Border size                                                         38
 RS_GRID| Real space distribution over                                  8 groups
 RS_GRID| Real space distribution along direction                              3
 RS_GRID| Border size                                                         38
 RS_GRID|   Distribution                         Average         Max         Min
 RS_GRID|   Planes                                 136.0         136         136
 RS_GRID|   Distribution                         Average         Max         Min
 RS_GRID|   Planes                                 116.0         116         116
 RS_GRID|   Distribution                         Average         Max         Min
 RS_GRID|   Planes                                 106.0         106         106

 RS_GRID| Information for grid number                                          3
 RS_GRID|   Bounds   1            -67      67                Points:         135
 RS_GRID|   Bounds   2            -67      67                Points:         135
 RS_GRID|   Bounds   3            -67      67                Points:         135
 RS_GRID| Real space fully replicated
 RS_GRID| Group size                                                           1

 RS_GRID| Information for grid number                                          4
 RS_GRID|   Bounds   1            -40      39                Points:          80
 RS_GRID|   Bounds   2            -40      39                Points:          80
 RS_GRID|   Bounds   3            -40      39                Points:          80
 RS_GRID| Real space fully replicated
 RS_GRID| Group size                                                           1

  HFX_INFO| Replica ID:                                                        1
  HFX_INFO| FRACTION:                                               0.2500000000
  HFX_INFO| Interaction Potential:                                       COULOMB
  HFX_INFO| EPS_SCHWARZ:                                                 1.0E-10
[...]
 https://doi.org/10.2533/000942905777676164

 M. Frigo, S. G. Johnson.
 Proc. IEEE 93, 216-231 (2005).
 The design and implementation of FFTW3.
 https://doi.org/10.1109/JPROC.2004.840301

 R. L. Martin.
 J. Chem. Phys. 118, 4775-4777 (2003).
 Natural transition orbitals.
 https://doi.org/10.1063/1.1558471

 M. Krack, M. Parrinello.
 Phys. Chem. Chem. Phys. 2, 2105-2112 (2000).
 All-electron ab-initio molecular dynamics.
 https://doi.org/10.1039/b001167n

 G. Lippert, J. Hutter, M. Parrinello.
 Theor. Chem. Acc. 103, 124-140 (1999).
 The Gaussian and augmented-plane-wave density functional method for ab initio 
 molecular dynamics simulations.
 https://doi.org/10.1007/s002140050523

 J. P. Perdew, K. Burke, M. Ernzerhof.
 Phys. Rev. Lett. 77, 3865-3868 (1996).
 Generalized gradient approximation made simple.
 https://doi.org/10.1103/PhysRevLett.77.3865


 -------------------------------------------------------------------------------
 -                                                                             -
 -                                T I M I N G                                  -
 -                                                                             -
 -------------------------------------------------------------------------------
 SUBROUTINE                       CALLS  ASD         SELF TIME        TOTAL TIME
                                MAXIMUM       AVERAGE  MAXIMUM  AVERAGE  MAXIMUM
 CP2K                                 1  1.0    0.022    0.048  353.779  353.782
 qs_energies                          1  2.0    0.000    0.000  353.531  353.534
 qs_energies_properties               1  3.0    0.000    0.000  241.966  241.967
 tddfpt                               1  4.0    0.000    0.000  241.966  241.967
 tddfpt_energies                      1  5.0    0.000    0.000  241.938  241.940
 tddfpt_davidson_solver               1  6.0    0.001    0.002  239.951  239.952
 tddfpt_compute_Aop_evects            8  7.0    0.000    0.000  238.315  238.317
 fhxc_kernel                          8  8.0    0.007    0.008  204.064  204.065
 fft_wrap_pw1pw2                   4138 11.2    0.082    0.104  109.220  114.783
 fft_wrap_pw1pw2_250               2908 12.2    2.324    3.073  103.012  112.375
 scf_env_do_scf                       1  3.0    0.000    0.000  110.722  110.730
 scf_env_do_scf_inner_loop           44  4.0    0.001    0.002  110.722  110.729
 fft3d_ps                          4138 13.2   14.536   20.085   99.942  104.758
 qs_ks_update_qs_env                 44  5.0    0.000    0.000   92.570   92.616
 rebuild_ks_matrix                   44  6.0    0.000    0.000   92.566   92.612
 qs_ks_build_kohn_sham_matrix        44  7.0    0.006    0.007   92.566   92.612
 mp_alltoall_z22v                  4138 15.2   80.703   85.056   80.703   85.056
 integrate_four_center              364  9.9   14.875   28.733   81.076   81.156
 tddfpt_apply_coulomb               160  9.0    0.003    0.003   64.884   67.233
 qs_rho_update_rho_low              206  8.1    0.002    0.003   62.886   62.901
 pw_poisson_solve                   204  9.6    0.873    1.197   58.566   60.893
 calculate_rho_elec                 206  9.1    0.270    0.383   57.996   58.002
 mp_sync                           1921 11.6   41.216   57.005   41.216   57.005
 hfx_ks_matrix                       44  8.0    0.001    0.001   49.669   49.685
 integrate_four_center_main         364 10.9    0.260    8.683   21.635   47.359
 integrate_four_center_bin       132575 11.9   21.376   47.241   21.376   47.241
 x_to_yz                           1680 13.8    1.848    3.120   43.124   45.456
 yz_to_x                           1638 14.6    1.451    1.643   40.752   44.990
 xc_pw_derive                      1227 11.0    0.010    0.011   41.667   43.871
 tddfpt_apply_xc_analytic           160  9.0    0.256    0.371   40.154   41.792
 density_rs2pw                      206 10.1    0.009    0.010   33.656   36.033
 integrate_v_rspace                 204  9.0    0.005    0.006   34.786   35.845
 potential_pw2rs                    204 10.0    0.021    0.027   34.480   34.722
 tddfpt_apply_hfx                     8  8.0    0.002    0.002   33.921   33.922
 ps_wavelet_solve                   204 10.6   12.259   17.285   29.639   32.260
 transfer_pw2rs                    1021 10.9    0.020    0.026   30.962   31.523
 tddft_hfx_matrix                   320  9.0    0.004    0.006   31.412   31.482
 xc_pw_divergence                   204 10.8    0.004    0.005   27.604   28.406
 mp_waitany                       67294 12.9   22.332   28.392   22.332   28.392
 prepare_gapw_den                   205  8.8    0.002    0.003   23.045   24.747
 xc_calc_2nd_deriv_analytical       480 10.1    1.142    1.392   23.376   23.949
 grid_collocate_task_list           206 10.1   22.147   23.827   22.147   23.827
 mp_sum_d                          4926  7.5    8.664   20.910    8.664   20.910
 transfer_rs2pw                    1030 11.0    0.034    0.042   19.877   20.768
 transfer_pw2rs_250                 409 11.8    3.455    3.747   17.966   18.923
 mp_alltoall_d54                    204 11.6    8.714   18.740    8.714   18.740
 put_rho0_on_grid                   205  9.8    0.288    0.419   15.955   17.648
 integrate_vhg0_rspace              204  9.6    0.672    0.781   13.467   13.639
 transfer_rs2pw_250                 412 11.9    3.545    3.890   11.962   13.069
 fft_wrap_pw1pw2_90                 410 12.1    0.078    0.145    5.027   12.827
 qs_vxc_create                       44  8.0    0.000    0.001   12.293   12.294
 xc_vxc_pw_create                    44  9.0    0.092    0.135   12.293   12.294
 mp_alltoall_d45                    205 11.6    9.047   11.735    9.047   11.735
 mp_waitall_1                    419972 13.3    8.616   10.434    8.616   10.434
 transfer_pw2rs_90                  204 12.0    0.638    0.747    7.445   10.001
 mp_isend_dm3                      8206 12.9    6.416    9.681    6.416    9.681
 mp_sum_dm                         5001 10.2    8.196    9.020    8.196    9.020
 mp_alltoall_d11v                 13904 11.7    6.493    8.937    6.493    8.937
 transfer_pw2rs_30                  204 12.0    0.900    1.025    4.796    6.413
 xc_rho_set_and_dset_create          45 10.0    0.118    0.159    5.746    6.399
 cp2k_distribution_to_z_slices      204 10.6    0.846    1.002    5.529    6.393
 sum_up_and_integrate                44  8.0    0.001    0.001    6.146    6.337
 Vh_1c_gg_integrals                 204  9.6    0.043    0.789    2.218    6.243
 calculate_rho_atom                 205  9.8    0.987    5.548    0.987    5.548
 gaVxcgb_GC                         204  9.8    0.230    5.537    0.230    5.537
 pw_integral_ab_c1d_c1d_gs          204 10.6    0.555    0.653    2.176    5.103
 calculate_xc_2nd_deriv_atom        160  9.0    0.044    0.501    0.252    5.022
 mp_sum_dv                        19354  8.9    3.900    4.976    3.900    4.976
 calculate_rho_atom_coeff           206  9.1    0.218    0.454    4.888    4.902
 transfer_rs2pw_90                  206 12.1    0.827    0.970    4.136    4.481
 gspace_mixing                       43  5.0    0.056    0.080    3.948    3.952
 pw_derive                         1839 11.9    3.085    3.405    3.085    3.405
 transfer_rs2pw_30                  206 12.1    1.138    1.309    2.903    3.328
 rs_grid_zero                      1023 12.0    3.104    3.276    3.104    3.276
 cp_dbcsr_sm_fm_multiply           1006  8.6    0.013    0.015    3.046    3.128
 pw_copy                           2745 11.0    2.563    2.968    2.563    2.968
 calculate_rho0_atom                205  9.8    2.526    2.815    2.526    2.815
 mp_sendrecv_dv                   78692 13.1    2.267    2.730    2.267    2.730
 pw_gather_p                       2050 13.5    2.206    2.667    2.206    2.667
 dbcsr_complete_redistribute       3289 10.5    0.084    0.152    1.702    2.641
 parallel_gemm_fm                  1465  8.3    0.001    0.001    2.507    2.637
 parallel_gemm_fm_cosma            1465  9.3    2.506    2.636    2.506    2.636
 pw_scatter_p                      2088 12.9    2.207    2.477    2.207    2.477
 pw_copy_to_array                  2050 13.5    1.527    2.242    1.527    2.242
 mp_alltoall_i22                   4362 11.5    1.226    2.170    1.226    2.170
 copy_fm_to_dbcsr                  2215  9.6    0.006    0.006    1.198    2.137
 update_ks_atom                     204  8.8    0.113    0.313    1.850    2.097
 integrate_four_center_getP         364 10.9    0.078    0.100    1.888    2.089
 mp_bcast_dm                       3264  9.8    1.737    2.035    1.737    2.035
 dbcsr_multiply_generic            1370 10.4    0.035    0.056    1.863    1.940
 pw_poisson_set                     205 10.5    0.004    0.005    1.874    1.927
 broyden_mixing                      43  6.0    1.689    1.712    1.767    1.794
 mp_max_i                           655  4.8    0.785    1.732    0.785    1.732
 mp_irecv_dm3                      8206 12.9    0.201    1.530    0.201    1.530
 cp_dbcsr_sm_fm_multiply_core      1006  9.6    0.002    0.002    1.403    1.476
 pw_axpy                           2208 10.9    1.169    1.403    1.169    1.403
 pw_zero                           2350 10.6    1.150    1.364    1.150    1.364
 calculate_vxc_atom                  44  8.0    0.007    0.060    1.288    1.288
 tddfpt_print_nto_analysis            1  6.0    0.002    0.002    1.244    1.244
 integrate_four_center_dist_KS      364 10.9    0.064    0.076    1.212    1.217
 pw_copy_from_array                2088 12.9    0.841    1.120    0.841    1.120
 calc_screening_functions             1 10.0    0.986    1.038    1.062    1.113
 grid_integrate_task_list           204 10.0    0.149    1.089    0.149    1.089
 cp_fm_diag_elpa                     94  7.3    0.000    0.000    0.946    1.035
 qs_scf_new_mos                      44  5.0    0.000    0.001    1.009    1.022
 fft_wrap_pw1pw2_30                 410 12.1    0.010    0.013    0.784    1.014
 rs_gather_matrices                 204 10.0    0.002    0.010    0.152    0.949
 transfer_rs2pw_10                  206 12.1    0.341    0.414    0.843    0.920
 mp_alltoall_z11v                   820 15.1    0.706    0.900    0.706    0.900
 copy_dbcsr_to_fm                  1072  9.4    0.008    0.008    0.803    0.884
 cp_fm_diag_elpa_base                94  8.3    0.834    0.843    0.851    0.863
 eigensolver_symm                    44  6.0    0.003    0.004    0.817    0.822
 xc_functional_eval                 453 10.9    0.001    0.003    0.470    0.806
 pbe_lda_eval                       453 11.9    0.470    0.806    0.470    0.806
 transfer_pw2rs_10                  204 12.0    0.238    0.267    0.736    0.789
 multiply_cannon                   1370 11.4    0.081    0.086    0.681    0.764
 pw_poisson_rebuild                 204 10.6    0.000    0.000    0.727    0.754
 ps_wavelet_create                    1 10.0    0.000    0.000    0.727    0.754
 RS_z_slice_distribution              1 11.0    0.191    0.214    0.727    0.754
 cp_dbcsr_plus_fm_fm_t              204  8.6    0.002    0.002    0.618    0.681
 mp_rank_compare                   4138 14.2    0.595    0.675    0.595    0.675
 prepare_dr1dr                      480 11.1    0.492    0.657    0.492    0.657
 make_m2s                          2740 11.4    0.025    0.027    0.568    0.607
 cp_fm_redistribute_end              94  8.3    0.034    0.597    0.037    0.601
 mp_sum_l                          5270 10.5    0.557    0.599    0.557    0.599
 tddfpt_orthonormalize_psi1_psi       9  6.9    0.008    0.009    0.583    0.583
 tddfpt_compute_residual_vects        7  7.0    0.000    0.000    0.562    0.563
 make_images                       2740 12.4    0.074    0.088    0.512    0.551
 mp_isendrecv_dv                 216976 12.3    0.149    0.545    0.149    0.545
 multiply_cannon_loop              1370 12.4    0.086    0.090    0.460    0.541
 cp_fm_geeig                         20  7.0    0.001    0.001    0.537    0.539
 yz_to_xz                           408 14.0    0.028    0.046    0.414    0.539
 offload_free_buffer                212 10.3    0.341    0.469    0.341    0.469
 tddfpt_construct_ground_state_       1  6.0    0.000    0.000    0.459    0.469
 fft_wrap_pw1pw2_10                 410 12.1    0.003    0.004    0.315    0.416
 init_scf_run                         1  3.0    0.000    0.000    0.415    0.415
 xz_to_yz                           412 14.1    0.022    0.025    0.345    0.414
 scf_env_initial_rho_setup            1  4.0    0.000    0.000    0.400    0.402
 make_images_sizes                 2740 13.4    0.002    0.002    0.339    0.353
 mp_alltoall_i44                   2740 14.4    0.337    0.351    0.337    0.351
 qs_energies_init_hamiltonians        1  3.0    0.000    0.000    0.349    0.349
 build_core_hamiltonian_matrix        1  4.0    0.000    0.000    0.345    0.345
 overlap_condnum                      1  5.0    0.000    0.000    0.341    0.345
 tddfpt_apply_energy_diff             8  8.0    0.000    0.001    0.331    0.331
 arnoldi_conjugate_gradient           5  6.0    0.006    0.007    0.299    0.299
 tddfpt_is_nonorthogonal_psi1_p       7  7.0    0.000    0.000    0.282    0.282
 tddfpt_orthogonalize_psi1_psi0       9  6.9    0.000    0.000    0.253    0.272
 mp_isend_dv                     124848 13.6    0.137    0.271    0.137    0.271
 dbcsr_desymmetrize_deep           1073 10.4    0.016    0.022    0.215    0.270
 cp_fm_trace_a1b1t1_aa            13090  8.0    0.023    0.024    0.261    0.265
 multiply_cannon_metrocomm3       32880 13.4    0.046    0.048    0.150    0.250
 scale_and_distribute               408 11.6    0.155    0.236    0.155    0.236
 dbcsr_sym_matrix_vector_mult      1934  7.0    0.014    0.015    0.139    0.193
 powell_optimize                 106679 11.0    0.157    0.191    0.157    0.191
 mp_cart_sub                       2148 11.4    0.169    0.171    0.169    0.171
 calc_pair_dist_radii                 1 10.0    0.067    0.068    0.148    0.170
 calculate_dm_sparse                 44  6.0    0.000    0.000    0.102    0.164
 create_kernel_env                    1  6.0    0.000    0.000    0.146    0.162
 xc_prep_2nd_deriv                    1  7.0    0.000    0.000    0.146    0.162
 mp_cart_create                    1281 11.1    0.143    0.154    0.144    0.156
 cp_fm_redistribute_start            94  8.3    0.040    0.042    0.058    0.149
 cube_transpose_2                   412 14.1    0.007    0.009    0.076    0.147
 xc_2nd_deriv_of_r                  320 10.0    0.001    0.023    0.005    0.147
 rs_grid_create                     210 10.4    0.001    0.002    0.023    0.147
 offload_create_buffer              212 11.4    0.022    0.145    0.022    0.145
 multiply_cannon_metrocomm1       32880 13.4    0.017    0.018    0.051    0.145
 dbcsr_finalize                    9060 11.4    0.016    0.027    0.104    0.138
 pw_scale                           496  9.5    0.086    0.133    0.086    0.133
 cp_fm_cholesky_decompose            20  8.0    0.124    0.126    0.124    0.126
 cube_transpose_1                   408 14.0    0.006    0.016    0.064    0.116
 mp_irecv_dv                     122750 13.6    0.066    0.114    0.066    0.114
 mp_allgather_i34                  1370 12.4    0.097    0.112    0.097    0.112
 cp_fm_triangular_invert             20  8.0    0.110    0.111    0.110    0.111
 mp_alltoall_i11v                 10940 11.5    0.077    0.110    0.077    0.110
 dbcsr_merge_all                   7766 12.4    0.047    0.081    0.069    0.104
 dbcsr_rep_row_to_rep_col_vec      1934  8.0    0.004    0.006    0.046    0.104
 multiply_cannon_metrocomm4       31510 13.4    0.047    0.054    0.080    0.099
 multiply_cannon_multrec          32880 13.4    0.019    0.091    0.022    0.095
 integrate_four_center_load         364 10.9    0.001    0.001    0.063    0.094
 hfx_load_balance                     1 11.0    0.000    0.000    0.063    0.093
 make_images_data                  2740 13.4    0.017    0.023    0.040    0.093
 qs_init_subsys                       1  2.0    0.001    0.001    0.091    0.092
 multiply_cannon_metrocomm2       28770 13.4    0.042    0.048    0.071    0.090
 create_qs_kind_set                   1  2.0    0.000    0.000    0.086    0.087
 read_qs_kind                         1  3.0    0.035    0.043    0.086    0.087
 dbcsr_create_new                 32618 11.3    0.057    0.064    0.078    0.086
 qs_env_setup                         1  3.0    0.000    0.000    0.085    0.085
 qs_env_rebuild_pw_env                2  3.5    0.000    0.000    0.085    0.085
 pw_env_rebuild                       1  5.0    0.000    0.000    0.084    0.085
 hfx_load_balance_range               1 12.0    0.000    0.000    0.051    0.082
 write_mo_set_to_restart             44  5.0    0.001    0.041    0.037    0.081
 pw_grid_setup                        4  6.0    0.000    0.000    0.078    0.078
 pw_grid_setup_internal               4  7.0    0.001    0.002    0.078    0.078
 scf_post_calculation_gpw             1  3.0    0.000    0.000    0.078    0.078
 write_available_results              1  4.0    0.000    0.000    0.078    0.078
 write_mo_free_results                1  5.0    0.002    0.003    0.078    0.078
 dbcsr_col_vec_to_rep_row          1934  8.0    0.006    0.007    0.032    0.071
 hybrid_alltoall_any               3813 13.5    0.016    0.021    0.026    0.065
 rs_scatter_matrices                206 10.1    0.001    0.004    0.009    0.065
 cp_fm_triangular_multiply           60  8.0    0.061    0.062    0.061    0.062
 dbcsr_add_d                       2930  7.0    0.001    0.001    0.009    0.059
 dbcsr_add_anytype                 2930  8.0    0.002    0.008    0.008    0.058
 cp_fm_write_unformatted             23  7.0    0.054    0.055    0.054    0.055
 parser_read_line                 14751  4.0    0.002    0.003    0.051    0.052
 parser_read_line_low                17  5.0    0.001    0.011    0.049    0.049
 pw_grid_sort                         4  8.0    0.035    0.036    0.048    0.049
 copy_fm_to_dbcsr_bc               2215 10.6    0.013    0.015    0.044    0.049
 broadcast_input_information         17  6.0    0.005    0.006    0.048    0.049
 cp_fm_symm                          44  7.0    0.045    0.048    0.045    0.048
 mp_sum_iv                          610  7.3    0.043    0.046    0.043    0.046
 dbcsr_iterator_start             45586 10.6    0.028    0.034    0.036    0.045
 dbcsr_copy                       11044  8.6    0.016    0.025    0.034    0.045
 mp_bcast_b_src                     138  8.2    0.036    0.043    0.036    0.043
 write_mo_set_low                     3  6.0    0.000    0.000    0.037    0.040
 tddfpt_compute_ritz_vects            8  7.0    0.003    0.003    0.039    0.040
 mp_bcast_dv                       1982  9.0    0.014    0.039    0.014    0.039
 dbcsr_special_finalize            5480 13.4    0.008    0.008    0.027    0.037
 mp_bcast_i_src                      68  7.0    0.028    0.037    0.028    0.037
 hirshfeld_integration                1  6.0    0.001    0.006    0.036    0.037
 -------------------------------------------------------------------------------

 The number of warnings for this run is : 1
 
 -------------------------------------------------------------------------------
  **** **** ******  **  PROGRAM ENDED AT                 2025-03-22 11:38:04.769
 ***** ** ***  *** **   PROGRAM RAN ON                     n2cn1101.ab2021.local
 **    ****   ******    PROGRAM RAN BY                                  metdyn02
 ***** **    ** ** **   PROGRAM PROCESS ID                               1658929
  **** **  *******  **  PROGRAM STOPPED IN /scratch/hpc-prf-metdyn/metdyn02_Remi
                                           /10_MOL/05_MOL/aUKBqsEOTmq69kFe5R_nOg
                                           /5k_set_final_qzvp/FURHUV01/DZVP/TDDF
                                           T/RILIM
