SIRIUS 7.5.2, git hash: https://api.github.com/repos/electronic-structure/SIRIUS/git/ref/tags/v7.5.2
 DBCSR| CPU Multiplication driver                                           XSMM (U)
 DBCSR| Multrec recursion limit                                              512 (U)
 DBCSR| Multiplication stack size                                           1000 (D)
 DBCSR| Maximum elements for images                                    UNLIMITED (U)
 DBCSR| Multiplicative factor virtual images                                   1 (U)
 DBCSR| Use multiplication densification                                       T (D)
 DBCSR| Multiplication size stacks                                             3 (U)
 DBCSR| Use memory pool for CPU allocation                                     F (U)
 DBCSR| Number of 3D layers                                               SINGLE (U)
 DBCSR| Use MPI memory allocation                                              F (U)
 DBCSR| Use RMA algorithm                                                      F (U)
 DBCSR| Use Communication thread                                               T (U)
 DBCSR| Communication thread load                                             75 (D)
 DBCSR| MPI: My process id                                                     0
 DBCSR| MPI: Number of processes                                             192
 DBCSR| OMP: Current number of threads                                         4
 DBCSR| OMP: Max number of threads                                             4
 DBCSR| Split modifier for TAS multiplication algorithm                  1.0E+00 (U)


  **** **** ******  **  PROGRAM STARTED AT               2025-03-22 21:30:44.875
 ***** ** ***  *** **   PROGRAM STARTED ON                              n2cn0318
 **    ****   ******    PROGRAM STARTED BY                              metdyn02
 ***** **    ** ** **   PROGRAM PROCESS ID                                561054
  **** **  *******  **  PROGRAM STARTED IN /scratch/hpc-prf-metdyn/metdyn02_Remi
                                           /10_MOL/05_MOL/aUKBqsEOTmq69kFe5R_nOg
                                           /5k_set_final_qzvp/MTROLA10/DZVP/TDDF
                                           T/RILIM

 CP2K| version string:                 CP2K version 2025.1 (Development Version)
 CP2K| source code revision number:                                  git:f0c7327
 CP2K| cp2kflags: omp libint fftw3 libxc libgrpp elpa parallel scalapack mpi_f08
 CP2K|             cosma xsmm plumed2 spglib sirius libvori libbqb libvdwxc hdf5
 CP2K| is freely available from                            https://www.cp2k.org/
 CP2K| Program compiled at                          Wed Mar 12 18:25:30 CET 2025
 CP2K| Program compiled on                                              n2login1
 CP2K| Program compiled for                                                local
 CP2K| Data directory path    /opt/software/pc2/EB-SW/software/CP2K/2024.1-foss-
 CP2K| Input file name                                                    GW.inp

 GLOBAL| Force Environment number                                              1
 GLOBAL| Basis set file name            /scratch/hpc-prf-metdyn/metdyn02_Remi/BA
 GLOBAL| Potential file name            /pc2/groups/hpc-prf-metdyn/metdyn02_Remi
 GLOBAL| MM Potential file name                                     MM_POTENTIAL
 GLOBAL| Coordinate file name                                      __STD_INPUT__
 GLOBAL| Method name                                                        CP2K
 GLOBAL| Project name                                                       MoS2
 GLOBAL| Run type                                                         ENERGY
 GLOBAL| FFT library                                                       FFTW3
 GLOBAL| Diagonalization library                                            ELPA
 GLOBAL| DGEMM library                                                      BLAS
 GLOBAL| Minimum number of eigenvectors for ELPA usage                        16
 GLOBAL| Orthonormality check for eigenvectors                          DISABLED
 GLOBAL| Matrix multiplication library                                     COSMA
 GLOBAL| All-to-all communication in single precision                          F
 GLOBAL| FFTs using library dependent lengths                                  F
 GLOBAL| Grid backend                                                       AUTO
 GLOBAL| Global print level                                               MEDIUM
 GLOBAL| MPI I/O enabled                                                       T
 GLOBAL| Total number of message passing processes                           192
 GLOBAL| Number of threads for this process                                    4
 GLOBAL| This output is from process                                           0
 GLOBAL| OpenMP stack size per thread (OMP_STACKSIZE)                    default
 GLOBAL| CPU model name                          AMD EPYC 7763 64-Core Processor
 GLOBAL| CPUID                                                              1002

 MEMORY| system memory details [Kb]
 MEMORY|                        rank 0           min           max       average
 MEMORY| MemTotal            263899264     263899260     263899264     263899261
 MEMORY| MemFree             241133544     241133544     244109344     242713556
 MEMORY| Buffers                287744         52552        287744        167461
 MEMORY| Cached                8281988       6114240       8281988       7324382
 MEMORY| Slab                  2529520       2197072       2684868       2379335
 MEMORY| SReclaimable           541052        322584        593520        458089
 MEMORY| MemLikelyFree       250244328     250244328     251013232     250663489


 *** Fundamental physical constants (SI units) ***

 *** Literature: B. J. Mohr and B. N. Taylor,
 ***             CODATA recommended values of the fundamental physical
 ***             constants: 2006, Web Version 5.1
 ***             http://physics.nist.gov/constants

 Speed of light in vacuum [m/s]                             2.99792458000000E+08
 Magnetic constant or permeability of vacuum [N/A**2]       1.25663706143592E-06
 Electric constant or permittivity of vacuum [F/m]          8.85418781762039E-12
 Planck constant (h) [J*s]                                  6.62606896000000E-34
 Planck constant (h-bar) [J*s]                              1.05457162825177E-34
 Elementary charge [C]                                      1.60217648700000E-19
 Electron mass [kg]                                         9.10938215000000E-31
 Electron g factor [ ]                                     -2.00231930436220E+00
 Proton mass [kg]                                           1.67262163700000E-27
 Fine-structure constant                                    7.29735253760000E-03
 Rydberg constant [1/m]                                     1.09737315685270E+07
 Avogadro constant [1/mol]                                  6.02214179000000E+23
 Boltzmann constant [J/K]                                   1.38065040000000E-23
 Atomic mass unit [kg]                                      1.66053878200000E-27
 Bohr radius [m]                                            5.29177208590000E-11

 *** Conversion factors ***

 [u] -> [a.u.]                                              1.82288848426455E+03
 [Angstrom] -> [Bohr] = [a.u.]                              1.88972613288564E+00
 [a.u.] = [Bohr] -> [Angstrom]                              5.29177208590000E-01
 [a.u.] -> [s]                                              2.41888432650478E-17
 [a.u.] -> [fs]                                             2.41888432650478E-02
 [a.u.] -> [J]                                              4.35974393937059E-18
 [a.u.] -> [N]                                              8.23872205491840E-08
 [a.u.] -> [K]                                              3.15774647902944E+05
 [a.u.] -> [kJ/mol]                                         2.62549961709828E+03
 [a.u.] -> [kcal/mol]                                       6.27509468713739E+02
 [a.u.] -> [Pa]                                             2.94210107994716E+13
 [a.u.] -> [bar]                                            2.94210107994716E+08
 [a.u.] -> [atm]                                            2.90362800883016E+08
 [a.u.] -> [eV]                                             2.72113838565563E+01
 [a.u.] -> [Hz]                                             6.57968392072181E+15
 [a.u.] -> [1/cm] (wave numbers)                            2.19474631370540E+05
 [a.u./Bohr**2] -> [1/cm]                                   5.14048714338585E+03
 

 CELL_TOP| Volume [angstrom^3]:                                     27000.000000
 CELL_TOP| Vector a [angstrom    30.000     0.000     0.000   |a| =    30.000000
 CELL_TOP| Vector b [angstrom     0.000    30.000     0.000   |b| =    30.000000
 CELL_TOP| Vector c [angstrom     0.000     0.000    30.000   |c| =    30.000000
 CELL_TOP| Angle (b,c), alpha [degree]:                                90.000000
 CELL_TOP| Angle (a,c), beta  [degree]:                                90.000000
 CELL_TOP| Angle (a,b), gamma [degree]:                                90.000000
 CELL_TOP| Numerically orthorhombic:                                         YES
 CELL_TOP| Periodicity                                                      NONE

 GENERATE|  Preliminary Number of Bonds generated:                             0
 GENERATE|  Achieved consistency in connectivity generation.

 CELL| Volume [angstrom^3]:                                         27000.000000
 CELL| Vector a [angstrom]:      30.000     0.000     0.000   |a| =    30.000000
 CELL| Vector b [angstrom]:       0.000    30.000     0.000   |b| =    30.000000
 CELL| Vector c [angstrom]:       0.000     0.000    30.000   |c| =    30.000000
 CELL| Angle (b,c), alpha [degree]:                                    90.000000
 CELL| Angle (a,c), beta  [degree]:                                    90.000000
 CELL| Angle (a,b), gamma [degree]:                                    90.000000
 CELL| Numerically orthorhombic:                                             YES
 CELL| Periodicity                                                          NONE

 CELL_REF| Volume [angstrom^3]:                                     27000.000000
 CELL_REF| Vector a [angstrom    30.000     0.000     0.000   |a| =    30.000000
 CELL_REF| Vector b [angstrom     0.000    30.000     0.000   |b| =    30.000000
 CELL_REF| Vector c [angstrom     0.000     0.000    30.000   |c| =    30.000000
 CELL_REF| Angle (b,c), alpha [degree]:                                90.000000
 CELL_REF| Angle (a,c), beta  [degree]:                                90.000000
 CELL_REF| Angle (a,b), gamma [degree]:                                90.000000
 CELL_REF| Numerically orthorhombic:                                         YES
 CELL_REF| Periodicity                                                      NONE

 *******************************************************************************
 *******************************************************************************
 **                                                                           **
 **     #####                         ##              ##                      **
 **    ##   ##            ##          ##              ##                      **
 **   ##     ##                       ##            ######                    **
 **   ##     ##  ##   ##  ##   #####  ##  ##   ####   ##    #####    #####    **
 **   ##     ##  ##   ##  ##  ##      ## ##   ##      ##   ##   ##  ##   ##   **
 **   ##  ## ##  ##   ##  ##  ##      ####     ###    ##   ######   ######    **
 **    ##  ###   ##   ##  ##  ##      ## ##      ##   ##   ##       ##        **
 **     #######   #####   ##   #####  ##  ##  ####    ##    #####   ##        **
 **           ##                                                    ##        **
 **                                                                           **
 **                                                ... make the atoms dance   **
 **                                                                           **
 **            Copyright (C) by CP2K developers group (2000-2025)             **
 **                      J. Chem. Phys. 152, 194103 (2020)                    **
 **                                                                           **
 *******************************************************************************

 DFT| Spin restricted Kohn-Sham (RKS) calculation                            RKS
 DFT| Multiplicity                                                             1
 DFT| Number of spin states                                                    1
 DFT| Charge                                                                   0
 DFT| Self-interaction correction (SIC)                                       NO
 DFT| Cutoffs: density                                              1.000000E-10
 DFT|          gradient                                             1.000000E-10
 DFT|          tau                                                  1.000000E-10
 DFT|          cutoff_smoothing_range                               0.000000E+00
 DFT| XC density smoothing                                                  NONE
 DFT| XC derivatives                                                          PW

 FUNCTIONAL| PBE:
 FUNCTIONAL| J.P.Perdew, K.Burke, M.Ernzerhof, Phys. Rev. Letter, vol. 77, n 18,
 FUNCTIONAL|  pp. 3865-3868, (1996)sx=0.750sc=1.000{spin unpolarized}           


 QS| Method:                                                                GAPW
 QS| Density plane wave grid type                        NON-SPHERICAL FULLSPACE
 QS| Number of grid levels:                                                    4
 QS| Density cutoff [a.u.]:                                                250.0
 QS| Multi grid cutoff [a.u.]: 1) grid level                               250.0
 QS|                           2) grid level                                83.3
 QS|                           3) grid level                                27.8
 QS|                           4) grid level                                 9.3
 QS| Grid level progression factor:                                          3.0
 QS| Relative density cutoff [a.u.]:                                        50.0
 QS| Interaction thresholds: eps_pgf_orb:                                1.0E-12
 QS|                         eps_filter_matrix:                          0.0E+00
 QS|                         eps_core_charge:                            1.0E-14
 QS|                         eps_rho_gspace:                             1.0E-12
 QS|                         eps_rho_rspace:                             1.0E-12
 QS|                         eps_gvg_rspace:                             1.0E-06
 QS|                         eps_ppl:                                    1.0E-02
 QS|                         eps_ppnl:                                   1.0E-08
 QS| GAPW|      One center basis from orbital basis primitives
 QS| GAPW|                   eps_fit:                                    1.0E-04
 QS| GAPW|                   eps_iso:                                    1.0E-12
 QS| GAPW|                   eps_svd:                                    1.0E-08
 QS| GAPW|                   eps_cpc:                                    1.0E-12
 QS| GAPW|   atom-r-grid: quadrature:                                     GC_LOG
 QS| GAPW|      atom-s-grid:  max l :                                          6
 QS| GAPW|      max_l_rho0 :                                                   2


 ATOMIC KIND INFORMATION

  1. Atomic kind: C                                     Number of atoms:       5

     Orbital Basis Set                                        aug-DZVP-MOLOPT-ae

       Number of orbital shell sets:                                           2
       Number of orbital shells:                                              10
       Number of primitive Cartesian functions:                               13
       Number of Cartesian basis functions:                                   35
       Number of spherical basis functions:                                   30
       Norm type:                                                              2

       Normalised Cartesian orbitals:

                        Set   Shell   Orbital            Exponent    Coefficient

                          1       1    2px               0.050000       0.000000
                                                         0.096935       0.005344
                                                         0.300899       0.144116
                                                         0.937529       0.673511
                                                         4.145546       1.425967
                          1       1    2py               0.050000       0.000000
                                                         0.096935       0.005344
                                                         0.300899       0.144116
                                                         0.937529       0.673511
                                                         4.145546       1.425967
                          1       1    2pz               0.050000       0.000000
                                                         0.096935       0.005344
                                                         0.300899       0.144116
                                                         0.937529       0.673511
                                                         4.145546       1.425967

                          1       2    3px               0.050000       0.000000
                                                         0.096935       0.066903
                                                         0.300899       0.082631
                                                         0.937529      -0.414500
                                                         4.145546      -0.833488
                          1       2    3py               0.050000       0.000000
                                                         0.096935       0.066903
                                                         0.300899       0.082631
                                                         0.937529      -0.414500
                                                         4.145546      -0.833488
                          1       2    3pz               0.050000       0.000000
                                                         0.096935       0.066903
                                                         0.300899       0.082631
                                                         0.937529      -0.414500
                                                         4.145546      -0.833488

                          1       3    4px               0.050000       0.052477
                                                         0.096935      -0.149600
                                                         0.300899      -0.031452
                                                         0.937529       0.106528
                                                         4.145546       0.000000
                          1       3    4py               0.050000       0.052477
                                                         0.096935      -0.149600
                                                         0.300899      -0.031452
                                                         0.937529       0.106528
                                                         4.145546       0.000000
                          1       3    4pz               0.050000       0.052477
                                                         0.096935      -0.149600
                                                         0.300899      -0.031452
                                                         0.937529       0.106528
                                                         4.145546       0.000000

                          1       4    3dx2              0.050000       0.000000
                                                         0.096935       0.001258
                                                         0.300899       0.105504
                                                         0.937529       0.830801
                                                         4.145546       0.718979
                          1       4    3dxy              0.050000       0.000000
                                                         0.096935       0.002179
                                                         0.300899       0.182739
                                                         0.937529       1.438990
                                                         4.145546       1.245309
                          1       4    3dxz              0.050000       0.000000
                                                         0.096935       0.002179
                                                         0.300899       0.182739
                                                         0.937529       1.438990
                                                         4.145546       1.245309
                          1       4    3dy2              0.050000       0.000000
                                                         0.096935       0.001258
                                                         0.300899       0.105504
                                                         0.937529       0.830801
                                                         4.145546       0.718979
                          1       4    3dyz              0.050000       0.000000
                                                         0.096935       0.002179
                                                         0.300899       0.182739
                                                         0.937529       1.438990
                                                         4.145546       1.245309
                          1       4    3dz2              0.050000       0.000000
                                                         0.096935       0.001258
                                                         0.300899       0.105504
                                                         0.937529       0.830801
                                                         4.145546       0.718979

                          1       5    4dx2              0.050000      -0.011665
                                                         0.096935       0.057456
                                                         0.300899      -0.258169
                                                         0.937529       0.000000
                                                         4.145546       0.000000
                          1       5    4dxy              0.050000      -0.020204
                                                         0.096935       0.099516
                                                         0.300899      -0.447162
                                                         0.937529       0.000000
                                                         4.145546       0.000000
                          1       5    4dxz              0.050000      -0.020204
                                                         0.096935       0.099516
                                                         0.300899      -0.447162
                                                         0.937529       0.000000
                                                         4.145546       0.000000
                          1       5    4dy2              0.050000      -0.011665
                                                         0.096935       0.057456
                                                         0.300899      -0.258169
                                                         0.937529       0.000000
                                                         4.145546       0.000000
                          1       5    4dyz              0.050000      -0.020204
                                                         0.096935       0.099516
                                                         0.300899      -0.447162
                                                         0.937529       0.000000
                                                         4.145546       0.000000
                          1       5    4dz2              0.050000      -0.011665
                                                         0.096935       0.057456
                                                         0.300899      -0.258169
                                                         0.937529       0.000000
                                                         4.145546       0.000000

                          1       6    4fx3              0.050000      -0.000180
                                                         0.096935       0.008160
                                                         0.300899       0.004002
                                                         0.937529       0.000000
                                                         4.145546       0.000000
                          1       6    4fx2y             0.050000      -0.000402
                                                         0.096935       0.018246
                                                         0.300899       0.008949
                                                         0.937529       0.000000
                                                         4.145546       0.000000
                          1       6    4fx2z             0.050000      -0.000402
                                                         0.096935       0.018246
                                                         0.300899       0.008949
                                                         0.937529       0.000000
                                                         4.145546       0.000000
                          1       6    4fxy2             0.050000      -0.000402
                                                         0.096935       0.018246
                                                         0.300899       0.008949
                                                         0.937529       0.000000
                                                         4.145546       0.000000
                          1       6    4fxyz             0.050000      -0.000696
                                                         0.096935       0.031603
                                                         0.300899       0.015500
                                                         0.937529       0.000000
                                                         4.145546       0.000000
                          1       6    4fxz2             0.050000      -0.000402
                                                         0.096935       0.018246
                                                         0.300899       0.008949
                                                         0.937529       0.000000
                                                         4.145546       0.000000
                          1       6    4fy3              0.050000      -0.000180
                                                         0.096935       0.008160
                                                         0.300899       0.004002
                                                         0.937529       0.000000
                                                         4.145546       0.000000
                          1       6    4fy2z             0.050000      -0.000402
                                                         0.096935       0.018246
                                                         0.300899       0.008949
                                                         0.937529       0.000000
                                                         4.145546       0.000000
                          1       6    4fyz2             0.050000      -0.000402
                                                         0.096935       0.018246
                                                         0.300899       0.008949
                                                         0.937529       0.000000
                                                         4.145546       0.000000
                          1       6    4fz3              0.050000      -0.000180
                                                         0.096935       0.008160
                                                         0.300899       0.004002
                                                         0.937529       0.000000
                                                         4.145546       0.000000

                          2       1    1s                0.060000       0.000000
                                                         0.161278       0.024253
                                                         0.523772      -0.029268
                                                         3.176528       0.666384
                                                        10.501907       2.110671
                                                        40.805234       2.242010
                                                       186.270922       1.801845
                                                      1238.394264      -0.490536

                          2       2    2s                0.060000       0.000000
                                                         0.161278       0.080328
                                                         0.523772       0.279468
                                                         3.176528      -0.079506
                                                        10.501907      -0.033488
                                                        40.805234       0.350132
                                                       186.270922      -0.108171
                                                      1238.394264       0.147138

                          2       3    3s                0.060000       0.000000
                                                         0.161278       0.225687
                                                         0.523772      -0.382710
                                                         3.176528      -0.308205
                                                        10.501907      -0.974990
                                                        40.805234      -2.174132
                                                       186.270922       1.755878
                                                      1238.394264     -12.484315

                          2       4    4s                0.060000      -0.055653
                                                         0.161278      -0.019607
                                                         0.523772       0.500289
                                                         3.176528       0.067234
                                                        10.501907       0.000000
                                                        40.805234       0.000000
                                                       186.270922       0.000000
                                                      1238.394264       0.000000

     RI Auxiliary Basis Set             RI_aug-DZVP-MOLOPT-ae_N_RI_102_s_p_d_f_g

       Number of orbital shell sets:                                          24
       Number of orbital shells:                                              24
       Number of primitive Cartesian functions:                               24
       Number of Cartesian basis functions:                                  137
       Number of spherical basis functions:                                  102
       Norm type:                                                              2

       Normalised Cartesian orbitals:

                        Set   Shell   Orbital            Exponent    Coefficient

                          1       1    1s                0.176773       0.194299

                          2       1    8px               0.196807       0.186849
                          2       1    8py               0.196807       0.186849
                          2       1    8pz               0.196807       0.186849

                          3       1   18fx3              0.238963       0.058776
                          3       1   18fx2y             0.238963       0.131427
                          3       1   18fx2z             0.238963       0.131427
                          3       1   18fxy2             0.238963       0.131427
                          3       1   18fxyz             0.238963       0.227638
                          3       1   18fxz2             0.238963       0.131427
                          3       1   18fy3              0.238963       0.058776
                          3       1   18fy2z             0.238963       0.131427
                          3       1   18fyz2             0.238963       0.131427
                          3       1   18fz3              0.238963       0.058776

                          4       1    2s                0.282769       0.276365

                          5       1   13dx2              0.310173       0.212186
                          5       1   13dxy              0.310173       0.367516
                          5       1   13dxz              0.310173       0.367516
                          5       1   13dy2              0.310173       0.212186
                          5       1   13dyz              0.310173       0.367516
                          5       1   13dz2              0.310173       0.212186

                          6       1   22gx4              0.415454       0.099397
                          6       1   22gx3y             0.415454       0.262980
                          6       1   22gx3z             0.415454       0.262980
                          6       1   22gx2y2            0.415454       0.339506
                          6       1   22gx2yz            0.415454       0.588042
                          6       1   22gx2z2            0.415454       0.339506
                          6       1   22gxy3             0.415454       0.262980
                          6       1   22gxy2z            0.415454       0.588042
                          6       1   22gxyz2            0.415454       0.588042
                          6       1   22gxz3             0.415454       0.262980
                          6       1   22gy4              0.415454       0.099397
                          6       1   22gy3z             0.415454       0.262980
                          6       1   22gy2z2            0.415454       0.339506
                          6       1   22gyz3             0.415454       0.262980
                          6       1   22gz4              0.415454       0.099397

                          7       1   14dx2              0.475521       0.448184
                          7       1   14dxy              0.475521       0.776278
                          7       1   14dxz              0.475521       0.776278
                          7       1   14dy2              0.475521       0.448184
                          7       1   14dyz              0.475521       0.776278
                          7       1   14dz2              0.475521       0.448184

                          8       1    9px               0.478157       0.566765
                          8       1    9py               0.478157       0.566765
                          8       1    9pz               0.478157       0.566765

                          9       1   19fx3              0.615924       0.494755
                          9       1   19fx2y             0.615924       1.106306
                          9       1   19fx2z             0.615924       1.106306
                          9       1   19fxy2             0.615924       1.106306
                          9       1   19fxyz             0.615924       1.916178
                          9       1   19fxz2             0.615924       1.106306
                          9       1   19fy3              0.615924       0.494755
                          9       1   19fy2z             0.615924       1.106306
                          9       1   19fyz2             0.615924       1.106306
                          9       1   19fz3              0.615924       0.494755

                         10       1   23gx4              0.774118       0.550370
                         10       1   23gx3y             0.774118       1.456141
                         10       1   23gx3z             0.774118       1.456141
                         10       1   23gx2y2            0.774118       1.879871
                         10       1   23gx2yz            0.774118       3.256031
                         10       1   23gx2z2            0.774118       1.879871
                         10       1   23gxy3             0.774118       1.456141
                         10       1   23gxy2z            0.774118       3.256031
                         10       1   23gxyz2            0.774118       3.256031
                         10       1   23gxz3             0.774118       1.456141
                         10       1   23gy4              0.774118       0.550370
                         10       1   23gy3z             0.774118       1.456141
                         10       1   23gy2z2            0.774118       1.879871
                         10       1   23gyz3             0.774118       1.456141
                         10       1   23gz4              0.774118       0.550370

                         11       1    3s                0.856620       0.634602

                         12       1   15dx2              0.960745       1.534525
                         12       1   15dxy              0.960745       2.657876
                         12       1   15dxz              0.960745       2.657876
                         12       1   15dy2              0.960745       1.534525
                         12       1   15dyz              0.960745       2.657876
                         12       1   15dz2              0.960745       1.534525

                         13       1   10px               1.162821       1.721200
                         13       1   10py               1.162821       1.721200
                         13       1   10pz               1.162821       1.721200

                         14       1   20fx3              1.214659       2.280218
                         14       1   20fx2y             1.214659       5.098724
                         14       1   20fx2z             1.214659       5.098724
                         14       1   20fxy2             1.214659       5.098724
                         14       1   20fxyz             1.214659       8.831248
                         14       1   20fxz2             1.214659       5.098724
                         14       1   20fy3              1.214659       2.280218
                         14       1   20fy2z             1.214659       5.098724
                         14       1   20fyz2             1.214659       5.098724
                         14       1   20fz3              1.214659       2.280218

                         15       1   24gx4              1.356232       2.572490
                         15       1   24gx3y             1.356232       6.806169
                         15       1   24gx3z             1.356232       6.806169
                         15       1   24gx2y2            1.356232       8.786727
                         15       1   24gx2yz            1.356232      15.219057
                         15       1   24gx2z2            1.356232       8.786727
                         15       1   24gxy3             1.356232       6.806169
                         15       1   24gxy2z            1.356232      15.219057
                         15       1   24gxyz2            1.356232      15.219057
                         15       1   24gxz3             1.356232       6.806169
                         15       1   24gy4              1.356232       2.572490
                         15       1   24gy3z             1.356232       6.806169
                         15       1   24gy2z2            1.356232       8.786727
                         15       1   24gyz3             1.356232       6.806169
                         15       1   24gz4              1.356232       2.572490

                         16       1   16dx2              1.921522       5.161655
                         16       1   16dxy              1.921522       8.940249
                         16       1   16dxz              1.921522       8.940249
                         16       1   16dy2              1.921522       5.161655
                         16       1   16dyz              1.921522       8.940249
                         16       1   16dz2              1.921522       5.161655

                         17       1   21fx3              2.377719      10.335118
                         17       1   21fx2y             2.377719      23.110027
                         17       1   21fx2z             2.377719      23.110027
                         17       1   21fxy2             2.377719      23.110027
                         17       1   21fxyz             2.377719      40.027741
                         17       1   21fxz2             2.377719      23.110027
                         17       1   21fy3              2.377719      10.335118
                         17       1   21fy2z             2.377719      23.110027
                         17       1   21fyz2             2.377719      23.110027
                         17       1   21fz3              2.377719      10.335118

                         18       1    4s                2.987161       1.619400

                         19       1   17dx2              4.345203      21.524201
                         19       1   17dxy              4.345203      37.281010
                         19       1   17dxz              4.345203      37.281010
                         19       1   17dy2              4.345203      21.524201
                         19       1   17dyz              4.345203      37.281010
                         19       1   17dz2              4.345203      21.524201

                         20       1   11px               4.473684       9.274098
                         20       1   11py               4.473684       9.274098
                         20       1   11pz               4.473684       9.274098

                         21       1    5s                9.158863       3.752246

                         22       1   12px              16.195512      46.310923
                         22       1   12py              16.195512      46.310923
                         22       1   12pz              16.195512      46.310923

                         23       1    6s               27.492688       8.557029

                         24       1    7s               82.168156      19.450813

       Atomic covalent radius [Angstrom]:                                  0.770

       Atomic van der Waals radius [Angstrom]:                             1.700

     The atoms of this atomic kind are PAW atoms (GAPW):
       Hard Gaussian function radius:                                      1.512
       Rho0 radius:                                                        1.512
       Maximum GTO radius used for PAW projector construction:            24.566

     GAPW Soft Basis Set                                 aug-DZVP-MOLOPT-ae_soft

       Number of orbital shell sets:                                           2
       Number of orbital shells:                                              10
       Number of primitive Cartesian functions:                                9
       Number of Cartesian basis functions:                                   35
       Number of spherical basis functions:                                   30
       Norm type:                                                              2

       Normalised Cartesian orbitals:

                        Set   Shell   Orbital            Exponent    Coefficient

                          1       1    2px               0.050000       0.000000
                                                         0.096935       0.005344
                                                         0.300899       0.144116
                                                         0.937529       0.673511
                                                         4.145546       1.425967
                          1       1    2py               0.050000       0.000000
                                                         0.096935       0.005344
                                                         0.300899       0.144116
                                                         0.937529       0.673511
                                                         4.145546       1.425967
                          1       1    2pz               0.050000       0.000000
                                                         0.096935       0.005344
                                                         0.300899       0.144116
                                                         0.937529       0.673511
                                                         4.145546       1.425967

                          1       2    3px               0.050000       0.000000
                                                         0.096935       0.066903
                                                         0.300899       0.082631
                                                         0.937529      -0.414500
                                                         4.145546      -0.833488
                          1       2    3py               0.050000       0.000000
                                                         0.096935       0.066903
                                                         0.300899       0.082631
                                                         0.937529      -0.414500
                                                         4.145546      -0.833488
                          1       2    3pz               0.050000       0.000000
                                                         0.096935       0.066903
                                                         0.300899       0.082631
                                                         0.937529      -0.414500
                                                         4.145546      -0.833488

                          1       3    4px               0.050000       0.052477
                                                         0.096935      -0.149600
                                                         0.300899      -0.031452
                                                         0.937529       0.106528
                                                         4.145546       0.000000
                          1       3    4py               0.050000       0.052477
                                                         0.096935      -0.149600
                                                         0.300899      -0.031452
                                                         0.937529       0.106528
                                                         4.145546       0.000000
                          1       3    4pz               0.050000       0.052477
                                                         0.096935      -0.149600
                                                         0.300899      -0.031452
                                                         0.937529       0.106528
                                                         4.145546       0.000000

                          1       4    3dx2              0.050000       0.000000
                                                         0.096935       0.001258
                                                         0.300899       0.105504
                                                         0.937529       0.830801
                                                         4.145546       0.718979
                          1       4    3dxy              0.050000       0.000000
                                                         0.096935       0.002179
                                                         0.300899       0.182739
                                                         0.937529       1.438990
                                                         4.145546       1.245309
                          1       4    3dxz              0.050000       0.000000
                                                         0.096935       0.002179
                                                         0.300899       0.182739
                                                         0.937529       1.438990
                                                         4.145546       1.245309
                          1       4    3dy2              0.050000       0.000000
                                                         0.096935       0.001258
                                                         0.300899       0.105504
                                                         0.937529       0.830801
                                                         4.145546       0.718979
                          1       4    3dyz              0.050000       0.000000
                                                         0.096935       0.002179
                                                         0.300899       0.182739
                                                         0.937529       1.438990
                                                         4.145546       1.245309
                          1       4    3dz2              0.050000       0.000000
                                                         0.096935       0.001258
                                                         0.300899       0.105504
                                                         0.937529       0.830801
                                                         4.145546       0.718979

                          1       5    4dx2              0.050000      -0.011665
                                                         0.096935       0.057456
                                                         0.300899      -0.258169
                                                         0.937529       0.000000
                                                         4.145546       0.000000
                          1       5    4dxy              0.050000      -0.020204
                                                         0.096935       0.099516
                                                         0.300899      -0.447162
                                                         0.937529       0.000000
                                                         4.145546       0.000000
                          1       5    4dxz              0.050000      -0.020204
                                                         0.096935       0.099516
                                                         0.300899      -0.447162
                                                         0.937529       0.000000
                                                         4.145546       0.000000
                          1       5    4dy2              0.050000      -0.011665
                                                         0.096935       0.057456
                                                         0.300899      -0.258169
                                                         0.937529       0.000000
                                                         4.145546       0.000000
                          1       5    4dyz              0.050000      -0.020204
                                                         0.096935       0.099516
                                                         0.300899      -0.447162
                                                         0.937529       0.000000
                                                         4.145546       0.000000
                          1       5    4dz2              0.050000      -0.011665
                                                         0.096935       0.057456
                                                         0.300899      -0.258169
                                                         0.937529       0.000000
                                                         4.145546       0.000000

                          1       6    4fx3              0.050000      -0.000180
                                                         0.096935       0.008160
                                                         0.300899       0.004002
                                                         0.937529       0.000000
                                                         4.145546       0.000000
                          1       6    4fx2y             0.050000      -0.000402
                                                         0.096935       0.018246
                                                         0.300899       0.008949
                                                         0.937529       0.000000
                                                         4.145546       0.000000
                          1       6    4fx2z             0.050000      -0.000402
                                                         0.096935       0.018246
                                                         0.300899       0.008949
                                                         0.937529       0.000000
                                                         4.145546       0.000000
                          1       6    4fxy2             0.050000      -0.000402
                                                         0.096935       0.018246
                                                         0.300899       0.008949
                                                         0.937529       0.000000
                                                         4.145546       0.000000
                          1       6    4fxyz             0.050000      -0.000696
                                                         0.096935       0.031603
                                                         0.300899       0.015500
                                                         0.937529       0.000000
                                                         4.145546       0.000000
                          1       6    4fxz2             0.050000      -0.000402
                                                         0.096935       0.018246
                                                         0.300899       0.008949
                                                         0.937529       0.000000
                                                         4.145546       0.000000
                          1       6    4fy3              0.050000      -0.000180
                                                         0.096935       0.008160
                                                         0.300899       0.004002
                                                         0.937529       0.000000
                                                         4.145546       0.000000
                          1       6    4fy2z             0.050000      -0.000402
                                                         0.096935       0.018246
                                                         0.300899       0.008949
                                                         0.937529       0.000000
                                                         4.145546       0.000000
                          1       6    4fyz2             0.050000      -0.000402
                                                         0.096935       0.018246
                                                         0.300899       0.008949
                                                         0.937529       0.000000
                                                         4.145546       0.000000
                          1       6    4fz3              0.050000      -0.000180
                                                         0.096935       0.008160
                                                         0.300899       0.004002
                                                         0.937529       0.000000
                                                         4.145546       0.000000

                          2       1    1s                0.060000       0.000000
                                                         0.161278       0.024253
                                                         0.523772      -0.029268
                                                         3.176528       0.666384

                          2       2    2s                0.060000       0.000000
                                                         0.161278       0.080328
                                                         0.523772       0.279468
                                                         3.176528      -0.079506

                          2       3    3s                0.060000       0.000000
                                                         0.161278       0.225687
                                                         0.523772      -0.382710
                                                         3.176528      -0.308205

                          2       4    4s                0.060000      -0.055653
                                                         0.161278      -0.019607
                                                         0.523772       0.500289
                                                         3.176528       0.067234

     AE Potential information for                                            ALL

       Description:                                       All-electron potential
                                          Krack, Parrinello, PCCP 2, 2105 (2000)

       Gaussian exponent of the core charge distribution:               4.109048
       Electronic configuration (s p d ...):                           4   2   0

  2. Atomic kind: H                                     Number of atoms:       7

     Orbital Basis Set                                        aug-DZVP-MOLOPT-ae

       Number of orbital shell sets:                                           1
       Number of orbital shells:                                               5
       Number of primitive Cartesian functions:                                5
       Number of Cartesian basis functions:                                    9
       Number of spherical basis functions:                                    9
       Norm type:                                                              2

       Normalised Cartesian orbitals:

                        Set   Shell   Orbital            Exponent    Coefficient

                          1       1    2s                0.035000       0.000000
                                                         0.111920       0.009149
                                                         0.374948       0.205449
                                                         1.446686       0.373852
                                                        12.248855       0.310040

                          1       2    3s                0.035000       0.000000
                                                         0.111920       0.143650
                                                         0.374948       0.007287
                                                         1.446686      -0.188851
                                                        12.248855      -0.144753

                          1       3    4s                0.035000       0.090463
                                                         0.111920      -0.203934
                                                         0.374948      -0.000376
                                                         1.446686      -0.000051
                                                        12.248855       0.000000

                          1       4    3px               0.035000       0.000000
                                                         0.111920       0.007225
                                                         0.374948       0.280770
                                                         1.446686       0.896497
                                                        12.248855      -0.764411
                          1       4    3py               0.035000       0.000000
                                                         0.111920       0.007225
                                                         0.374948       0.280770
                                                         1.446686       0.896497
                                                        12.248855      -0.764411
                          1       4    3pz               0.035000       0.000000
                                                         0.111920       0.007225
                                                         0.374948       0.280770
                                                         1.446686       0.896497
                                                        12.248855      -0.764411

                          1       5    4px               0.035000       0.011331
                                                         0.111920       0.048737
                                                         0.374948       0.028490
                                                         1.446686       0.035587
                                                        12.248855       0.000000
                          1       5    4py               0.035000       0.011331
                                                         0.111920       0.048737
                                                         0.374948       0.028490
                                                         1.446686       0.035587
                                                        12.248855       0.000000
                          1       5    4pz               0.035000       0.011331
                                                         0.111920       0.048737
                                                         0.374948       0.028490
                                                         1.446686       0.035587
                                                        12.248855       0.000000

     RI Auxiliary Basis Set             RI_aug-DZVP-MOLOPT-ae_N_RI_047_s_p_d_f_g

       Number of orbital shell sets:                                          17
       Number of orbital shells:                                              17
       Number of primitive Cartesian functions:                               17
       Number of Cartesian basis functions:                                   53
       Number of spherical basis functions:                                   47
       Norm type:                                                              2

       Normalised Cartesian orbitals:

                        Set   Shell   Orbital            Exponent    Coefficient

                          1       1    1s                0.236911       0.242019

                          2       1    8px               0.347892       0.380843
                          2       1    8py               0.347892       0.380843
                          2       1    8pz               0.347892       0.380843

                          3       1    2s                0.423897       0.374417

                          4       1    9px               0.493166       0.589089
                          4       1    9py               0.493166       0.589089
                          4       1    9pz               0.493166       0.589089

                          5       1   14dx2              0.625366       0.723843
                          5       1   14dxy              0.625366       1.253733
                          5       1   14dxz              0.625366       1.253733
                          5       1   14dy2              0.625366       0.723843
                          5       1   14dyz              0.625366       1.253733
                          5       1   14dz2              0.625366       0.723843

                          6       1   10px               0.699103       0.911206
                          6       1   10py               0.699103       0.911206
                          6       1   10pz               0.699103       0.911206

                          7       1    3s                0.758464       0.579244

                          8       1   15dx2              0.896802       1.360281
                          8       1   15dxy              0.896802       2.356075
                          8       1   15dxz              0.896802       2.356075
                          8       1   15dy2              0.896802       1.360281
                          8       1   15dyz              0.896802       2.356075
                          8       1   15dz2              0.896802       1.360281

                          9       1   11px               0.991036       1.409457
                          9       1   11py               0.991036       1.409457
                          9       1   11pz               0.991036       1.409457

                         10       1   17fx3              1.198110       2.210915
                         10       1   17fx2y             1.198110       4.943756
                         10       1   17fx2z             1.198110       4.943756
                         10       1   17fxy2             1.198110       4.943756
                         10       1   17fxyz             1.198110       8.562836
                         10       1   17fxz2             1.198110       4.943756
                         10       1   17fy3              1.198110       2.210915
                         10       1   17fy2z             1.198110       4.943756
                         10       1   17fyz2             1.198110       4.943756
                         10       1   17fz3              1.198110       2.210915

                         11       1   16dx2              1.286053       2.556305
                         11       1   16dxy              1.286053       4.427650
                         11       1   16dxz              1.286053       4.427650
                         11       1   16dy2              1.286053       2.556305
                         11       1   16dyz              1.286053       4.427650
                         11       1   16dz2              1.286053       2.556305

                         12       1    4s                1.357095       0.896123

                         13       1   12px               1.404875       2.180155
                         13       1   12py               1.404875       2.180155
                         13       1   12pz               1.404875       2.180155

                         14       1   13px               1.991527       3.372273
                         14       1   13py               1.991527       3.372273
                         14       1   13pz               1.991527       3.372273

                         15       1    5s                2.428204       1.386354

                         16       1    6s                4.344704       2.144768

                         17       1    7s                7.773833       3.318077

       Atomic covalent radius [Angstrom]:                                  0.320

       Atomic van der Waals radius [Angstrom]:                             1.090

     The atoms of this atomic kind are PAW atoms (GAPW):
       Hard Gaussian function radius:                                      1.200
       Rho0 radius:                                                        1.200
       Maximum GTO radius used for PAW projector construction:            24.566

     GAPW Soft Basis Set                                 aug-DZVP-MOLOPT-ae_soft

       Number of orbital shell sets:                                           1
       Number of orbital shells:                                               5
       Number of primitive Cartesian functions:                                4
       Number of Cartesian basis functions:                                    9
       Number of spherical basis functions:                                    9
       Norm type:                                                              2

       Normalised Cartesian orbitals:

                        Set   Shell   Orbital            Exponent    Coefficient

                          1       1    2s                0.035000       0.000000
                                                         0.111920       0.009149
                                                         0.374948       0.205449
                                                         1.446686       0.373852

                          1       2    3s                0.035000       0.000000
                                                         0.111920       0.143650
                                                         0.374948       0.007287
                                                         1.446686      -0.188851

                          1       3    4s                0.035000       0.090463
                                                         0.111920      -0.203934
                                                         0.374948      -0.000376
                                                         1.446686      -0.000051

                          1       4    3px               0.035000       0.000000
                                                         0.111920       0.007225
                                                         0.374948       0.280770
                                                         1.446686       0.896497
                          1       4    3py               0.035000       0.000000
                                                         0.111920       0.007225
                                                         0.374948       0.280770
                                                         1.446686       0.896497
                          1       4    3pz               0.035000       0.000000
                                                         0.111920       0.007225
                                                         0.374948       0.280770
                                                         1.446686       0.896497

                          1       5    4px               0.035000       0.011331
                                                         0.111920       0.048737
                                                         0.374948       0.028490
                                                         1.446686       0.035587
                          1       5    4py               0.035000       0.011331
                                                         0.111920       0.048737
                                                         0.374948       0.028490
                                                         1.446686       0.035587
                          1       5    4pz               0.035000       0.011331
                                                         0.111920       0.048737
                                                         0.374948       0.028490
                                                         1.446686       0.035587

     AE Potential information for                                            ALL

       Description:                                       All-electron potential
                                          Krack, Parrinello, PCCP 2, 2105 (2000)

       Gaussian exponent of the core charge distribution:              12.500000
       Electronic configuration (s p d ...):                           1   0   0

  3. Atomic kind: N                                     Number of atoms:       1

     Orbital Basis Set                                        aug-DZVP-MOLOPT-ae

       Number of orbital shell sets:                                           2
       Number of orbital shells:                                              10
       Number of primitive Cartesian functions:                               12
       Number of Cartesian basis functions:                                   35
       Number of spherical basis functions:                                   30
       Norm type:                                                              2

       Normalised Cartesian orbitals:

                        Set   Shell   Orbital            Exponent    Coefficient

                          1       1    2s                0.060000      -0.096639
                                                         0.166384       0.037538
                                                         0.634073      -0.055669
                                                         2.325354       0.000000
                                                        12.268174       0.000000

                          1       2    3px               0.060000       0.000000
                                                         0.166384      -0.031930
                                                         0.634073      -0.492962
                                                         2.325354      -1.380142
                                                        12.268174      -2.349358
                          1       2    3py               0.060000       0.000000
                                                         0.166384      -0.031930
                                                         0.634073      -0.492962
                                                         2.325354      -1.380142
                                                        12.268174      -2.349358
                          1       2    3pz               0.060000       0.000000
                                                         0.166384      -0.031930
                                                         0.634073      -0.492962
                                                         2.325354      -1.380142
                                                        12.268174      -2.349358

                          1       3    4px               0.060000       0.000000
                                                         0.166384       0.169694
                                                         0.634073      -0.220766
                                                         2.325354      -0.809234
                                                        12.268174      -0.998521
                          1       3    4py               0.060000       0.000000
                                                         0.166384       0.169694
                                                         0.634073      -0.220766
                                                         2.325354      -0.809234
                                                        12.268174      -0.998521
                          1       3    4pz               0.060000       0.000000
                                                         0.166384       0.169694
                                                         0.634073      -0.220766
                                                         2.325354      -0.809234
                                                        12.268174      -0.998521

                          1       4    5px               0.060000       0.028594
                                                         0.166384       0.063224
                                                         0.634073      -0.046183
                                                         2.325354       0.000000
                                                        12.268174       0.000000
                          1       4    5py               0.060000       0.028594
                                                         0.166384       0.063224
                                                         0.634073      -0.046183
                                                         2.325354       0.000000
                                                        12.268174       0.000000
                          1       4    5pz               0.060000       0.028594
                                                         0.166384       0.063224
                                                         0.634073      -0.046183
                                                         2.325354       0.000000
                                                        12.268174       0.000000

                          1       5    4dx2              0.060000       0.000000
                                                         0.166384       0.019402
                                                         0.634073       0.555487
                                                         2.325354       1.255926
                                                        12.268174      -0.426175
                          1       5    4dxy              0.060000       0.000000
                                                         0.166384       0.033606
                                                         0.634073       0.962132
                                                         2.325354       2.175327
                                                        12.268174      -0.738157
                          1       5    4dxz              0.060000       0.000000
                                                         0.166384       0.033606
                                                         0.634073       0.962132
                                                         2.325354       2.175327
                                                        12.268174      -0.738157
                          1       5    4dy2              0.060000       0.000000
                                                         0.166384       0.019402
                                                         0.634073       0.555487
                                                         2.325354       1.255926
                                                        12.268174      -0.426175
                          1       5    4dyz              0.060000       0.000000
                                                         0.166384       0.033606
                                                         0.634073       0.962132
                                                         2.325354       2.175327
                                                        12.268174      -0.738157
                          1       5    4dz2              0.060000       0.000000
                                                         0.166384       0.019402
                                                         0.634073       0.555487
                                                         2.325354       1.255926
[...]
 https://doi.org/10.2533/000942905777676164

 M. Frigo, S. G. Johnson.
 Proc. IEEE 93, 216-231 (2005).
 The design and implementation of FFTW3.
 https://doi.org/10.1109/JPROC.2004.840301

 R. L. Martin.
 J. Chem. Phys. 118, 4775-4777 (2003).
 Natural transition orbitals.
 https://doi.org/10.1063/1.1558471

 M. Krack, M. Parrinello.
 Phys. Chem. Chem. Phys. 2, 2105-2112 (2000).
 All-electron ab-initio molecular dynamics.
 https://doi.org/10.1039/b001167n

 G. Lippert, J. Hutter, M. Parrinello.
 Theor. Chem. Acc. 103, 124-140 (1999).
 The Gaussian and augmented-plane-wave density functional method for ab initio 
 molecular dynamics simulations.
 https://doi.org/10.1007/s002140050523

 J. P. Perdew, K. Burke, M. Ernzerhof.
 Phys. Rev. Lett. 77, 3865-3868 (1996).
 Generalized gradient approximation made simple.
 https://doi.org/10.1103/PhysRevLett.77.3865


 -------------------------------------------------------------------------------
 -                                                                             -
 -                                T I M I N G                                  -
 -                                                                             -
 -------------------------------------------------------------------------------
 SUBROUTINE                       CALLS  ASD         SELF TIME        TOTAL TIME
                                MAXIMUM       AVERAGE  MAXIMUM  AVERAGE  MAXIMUM
 CP2K                                 1  1.0    0.021    0.042  425.322  425.324
 qs_energies                          1  2.0    0.000    0.000  425.005  425.007
 qs_energies_properties               1  3.0    0.000    0.000  297.986  297.987
 tddfpt                               1  4.0    0.000    0.000  297.986  297.987
 tddfpt_energies                      1  5.0    0.000    0.000  297.963  297.964
 tddfpt_davidson_solver               1  6.0    0.001    0.001  296.083  296.084
 tddfpt_compute_Aop_evects           10  7.0    0.000    0.000  294.103  294.104
 fhxc_kernel                         10  8.0    0.008    0.010  257.277  257.278
 fft_wrap_pw1pw2                   5589 11.1    0.110    0.144  147.525  155.515
 fft_wrap_pw1pw2_250               3933 12.2    3.138    4.180  139.398  152.334
 fft3d_ps                          5589 13.1   19.595   27.251  135.035  142.038
 scf_env_do_scf                       1  3.0    0.000    0.000  126.138  126.144
 scf_env_do_scf_inner_loop           75  4.0    0.002    0.003  126.138  126.144
 mp_alltoall_z22v                  5589 15.1  109.060  115.988  109.060  115.988
 qs_ks_update_qs_env                 75  5.0    0.001    0.001   94.865   94.918
 rebuild_ks_matrix                   75  6.0    0.000    0.000   94.858   94.912
 qs_ks_build_kohn_sham_matrix        75  7.0    0.010    0.013   94.858   94.911
 tddfpt_apply_coulomb               200  9.0    0.003    0.004   84.022   86.671
 pw_poisson_solve                   275  9.5    1.160    1.559   81.881   84.485
 qs_rho_update_rho_low              277  7.9    0.003    0.004   82.807   82.821
 calculate_rho_elec                 277  8.9    0.363    0.515   80.137   80.150
 x_to_yz                           2279 13.8    2.605    4.253   60.094   62.165
 yz_to_x                           2206 14.5    1.951    2.239   53.360   59.436
 xc_pw_derive                      1653 11.0    0.013    0.019   55.166   57.883
 integrate_v_rspace                 275  9.0    0.007    0.009   49.328   52.099
 integrate_four_center              475  9.8   16.039   34.853   51.576   51.647
 tddfpt_apply_xc_analytic           200  9.0    0.322    0.459   48.946   50.886
 density_rs2pw                      277  9.9    0.012    0.013   45.479   48.549
 potential_pw2rs                    275 10.0    0.028    0.036   47.515   47.767
 transfer_pw2rs                    1376 10.9    0.026    0.034   44.898   46.213
 ps_wavelet_solve                   275 10.5   16.415   22.732   39.971   42.874
 mp_waitany                       90582 12.8   32.108   38.570   32.108   38.570
 xc_pw_divergence                   275 10.7    0.006    0.007   36.028   36.967
 mp_sync                           2509 11.5   22.090   36.582   22.090   36.582
 tddfpt_apply_hfx                    10  8.0    0.002    0.003   36.430   36.431
 grid_collocate_task_list           277  9.9   31.662   34.726   31.662   34.726
 tddft_hfx_matrix                   400  9.0    0.005    0.007   34.271   34.322
 prepare_gapw_den                   276  8.7    0.004    0.005   31.831   34.176
 mp_sum_d                          6814  7.6   13.028   30.852   13.028   30.852
 transfer_rs2pw                    1385 10.9    0.039    0.058   28.032   30.535
 xc_calc_2nd_deriv_analytical      1800 10.1    1.424    1.765   28.343   28.972
 transfer_pw2rs_250                 551 11.7    5.244    5.657   26.679   28.644
 mp_alltoall_d54                    275 11.5   11.829   25.351   11.829   25.351
 put_rho0_on_grid                   276  9.7    0.393    0.647   22.544   24.891
 qs_vxc_create                       75  8.0    0.001    0.001   20.824   20.825
 xc_vxc_pw_create                    75  9.0    0.158    0.211   20.824   20.824
 integrate_vhg0_rspace              275  9.5    0.324    0.430   20.029   20.700
 transfer_rs2pw_250                 554 11.8    5.474    5.958   17.933   20.322
 fft_wrap_pw1pw2_90                 552 11.9    0.110    0.210    6.615   17.556
 hfx_ks_matrix                       75  8.0    0.001    0.002   17.313   17.346
 mp_alltoall_d45                    276 11.5   13.349   16.359   13.349   16.359
 mp_waitall_1                    541886 13.3   12.140   15.327   12.140   15.327
 mp_alltoall_d11v                 17560 11.6    9.510   13.529    9.510   13.529
 transfer_pw2rs_90                  275 12.0    0.879    1.093    9.752   13.213
 sum_up_and_integrate                75  8.0    0.001    0.002   12.296   13.041
 mp_isend_dm3                     11046 12.8    8.233   12.386    8.233   12.386
 xc_rho_set_and_dset_create          76 10.0    0.193    0.227    9.956   11.065
 integrate_four_center_main         475 10.8    0.079    0.834    6.710    9.610
 mp_sum_dm                        11718 10.1    8.026    9.464    8.026    9.464
 integrate_four_center_bin        27595 11.8    6.631    9.461    6.631    9.461
 gaVxcgb_GC                        1100  9.7    0.113    9.055    0.113    9.055
 transfer_pw2rs_30                  275 12.0    1.185    1.337    7.098    9.013
 calculate_rho_atom                1104  9.7    1.472    8.942    1.472    8.942
 calculate_xc_2nd_deriv_atom        200  9.0    0.085    1.690    0.215    8.842
 cp2k_distribution_to_z_slices      275 10.5    1.133    1.384    7.359    8.307
 Vh_1c_gg_integrals                 275  9.5    0.038    1.039    2.724    8.159
 mp_sum_dv                        29180  8.9    7.791    8.082    7.791    8.082
 gspace_mixing                       74  5.0    0.097    0.137    6.840    6.841
 pw_integral_ab_c1d_c1d_gs          275 10.5    0.756    0.895    2.829    6.601
 transfer_rs2pw_90                  277 11.9    1.119    1.353    5.113    5.517
 rs_grid_zero                      1378 11.9    4.868    5.286    4.868    5.286
 pw_derive                         2478 11.8    4.196    4.642    4.196    4.642
 update_ks_atom                     275  8.7    0.076    0.186    3.191    4.629
 mp_bcast_dm                       7700  9.7    3.115    4.583    3.115    4.583
 grid_integrate_task_list           275 10.0    0.270    4.364    0.270    4.364
 rs_gather_matrices                 275 10.0    0.005    0.018    1.535    4.348
 calc_screening_functions             1 10.0    3.527    3.612    3.991    4.103
 transfer_rs2pw_30                  277 11.9    1.523    1.732    3.779    4.049
 pw_copy                           3730 11.0    3.524    4.016    3.524    4.016
 pw_gather_p                       2760 13.4    2.973    3.702    2.973    3.702
 pw_scatter_p                      2829 12.8    2.997    3.323    2.997    3.323
 mp_sendrecv_dv                  105814 12.9    2.965    3.234    2.965    3.234
 cp_dbcsr_sm_fm_multiply           1246  8.6    0.015    0.018    3.017    3.215
 broyden_mixing                      74  6.0    3.023    3.073    3.157    3.201
 calculate_vxc_atom                  75  8.0    0.038    0.330    2.956    2.957
 pw_copy_to_array                  2760 13.4    2.010    2.918    2.010    2.918
 dbcsr_complete_redistribute       4142 10.5    0.101    0.149    1.718    2.714
 mp_max_i                           746  5.3    1.249    2.685    1.249    2.685
 calculate_rho_atom_coeff           277  8.9    0.136    0.336    2.667    2.671
 pw_poisson_set                     276 10.4    0.005    0.006    2.525    2.606
 parallel_gemm_fm                  1820  8.3    0.001    0.002    2.431    2.555
 parallel_gemm_fm_cosma            1820  9.3    2.430    2.554    2.430    2.554
 mp_alltoall_i22                   5486 11.5    1.179    2.294    1.179    2.294
 pw_poisson_rebuild                 275 10.5    0.000    0.000    2.010    2.175
 ps_wavelet_create                    1 10.0    0.000    0.000    2.010    2.175
 RS_z_slice_distribution              1 11.0    0.193    0.320    2.010    2.175
 copy_fm_to_dbcsr                  2797  9.6    0.007    0.008    1.130    2.134
 xc_functional_eval                2276 10.9    0.001    0.004    1.083    2.122
 pbe_lda_eval                      2276 11.9    1.082    2.118    1.082    2.118
 dbcsr_multiply_generic            1721 10.3    0.043    0.049    2.008    2.089
 integrate_four_center_getP         475 10.8    0.100    0.126    1.620    1.981
 qs_scf_new_mos                      75  5.0    0.001    0.001    1.795    1.873
 pw_axpy                           2958 10.8    1.578    1.862    1.578    1.862
 pw_zero                           3056 10.6    1.520    1.827    1.520    1.827
 transfer_pw2rs_10                  275 12.0    0.318    0.360    1.343    1.718
 cp_fm_diag_elpa                    127  7.2    0.000    0.000    1.472    1.626
 pw_copy_from_array                2829 12.8    1.134    1.577    1.134    1.577
 eigensolver_symm                    75  6.0    0.005    0.007    1.480    1.490
 cp_dbcsr_sm_fm_multiply_core      1246  9.6    0.002    0.002    1.370    1.446
 cp_fm_diag_elpa_base               127  8.2    1.285    1.300    1.312    1.332
 fft_wrap_pw1pw2_30                 552 11.9    0.014    0.018    1.004    1.324
 transfer_rs2pw_10                  277 11.9    0.459    0.564    1.168    1.318
 tddfpt_print_nto_analysis            1  6.0    0.002    0.002    1.137    1.138
 mp_alltoall_z11v                  1104 14.9    0.885    1.125    0.885    1.125
 cp_fm_redistribute_end             127  8.2    0.058    1.092    0.062    1.096
 copy_dbcsr_to_fm                  1343  9.3    0.010    0.010    0.966    1.061
 powell_optimize                 567018 11.0    0.820    1.010    0.820    1.010
 cp_dbcsr_plus_fm_fm_t              275  8.5    0.002    0.002    0.861    0.970
 multiply_cannon                   1721 11.3    0.103    0.123    0.830    0.918
 mp_irecv_dm3                     11046 12.8    0.283    0.902    0.283    0.902
 integrate_four_center_dist_KS      475 10.8    0.086    0.108    0.887    0.891
 mp_rank_compare                   5589 14.1    0.805    0.865    0.805    0.865
 prepare_dr1dr                     1800 11.1    0.614    0.829    0.614    0.829
 tddfpt_orthonormalize_psi1_psi      11  6.9    0.013    0.014    0.824    0.825
 calc_pair_dist_radii                 1 10.0    0.357    0.363    0.714    0.823
 tddfpt_compute_residual_vects        9  7.0    0.000    0.001    0.716    0.717
 mp_sum_l                          6545 10.6    0.606    0.683    0.606    0.683
 multiply_cannon_loop              1721 12.3    0.108    0.114    0.577    0.668
 mp_isendrecv_dv                 286500 12.3    0.189    0.633    0.189    0.633
 yz_to_xz                           550 14.0    0.038    0.045    0.451    0.624
 offload_free_buffer                283 10.3    0.442    0.623    0.442    0.623
 xz_to_yz                           554 13.9    0.029    0.037    0.501    0.576
 make_m2s                          3442 11.3    0.031    0.032    0.539    0.571
 calculate_rho0_atom               1104  9.7    0.522    0.557    0.522    0.557
 fft_wrap_pw1pw2_10                 552 11.9    0.004    0.005    0.399    0.528
 xc_2nd_deriv_of_r                 1600 10.0    0.001    0.062    0.011    0.524
 cp_fm_geeig                         20  7.0    0.001    0.001    0.517    0.519
 make_images                       3442 12.3    0.092    0.098    0.464    0.493
 tddfpt_construct_ground_state_       1  6.0    0.000    0.000    0.466    0.476
 cp_fm_trace_a1b1t1_aa            20310  8.0    0.035    0.052    0.433    0.440
 qs_energies_init_hamiltonians        1  3.0    0.000    0.000    0.401    0.401
 build_core_hamiltonian_matrix        1  4.0    0.000    0.000    0.397    0.397
 init_scf_run                         1  3.0    0.000    0.000    0.396    0.397
 overlap_condnum                      1  5.0    0.000    0.000    0.395    0.397
 tddfpt_apply_energy_diff            10  8.0    0.000    0.001    0.396    0.396
 scf_env_initial_rho_setup            1  4.0    0.000    0.000    0.381    0.383
 dbcsr_desymmetrize_deep           1344 10.3    0.019    0.023    0.276    0.368
 arnoldi_conjugate_gradient           5  6.0    0.008    0.010    0.360    0.360
 tddfpt_orthogonalize_psi1_psi0      11  6.9    0.000    0.000    0.279    0.297
 multiply_cannon_metrocomm3       41304 13.3    0.058    0.060    0.189    0.293
 scale_and_distribute               550 11.5    0.194    0.293    0.194    0.293
 calculate_dm_sparse                 75  6.0    0.000    0.000    0.184    0.289
 mp_isend_dv                     160423 13.6    0.185    0.288    0.185    0.288
 make_images_sizes                 3442 13.3    0.002    0.003    0.248    0.260
 mp_alltoall_i44                   3442 14.3    0.246    0.258    0.246    0.258
 cp_fm_redistribute_start           127  8.2    0.066    0.070    0.098    0.255
 dbcsr_sym_matrix_vector_mult      2745  7.0    0.020    0.021    0.199    0.228
 mp_cart_sub                       2690 11.3    0.223    0.226    0.223    0.226
 rs_grid_create                     281 10.4    0.002    0.002    0.028    0.218
 offload_create_buffer              283 11.3    0.027    0.215    0.027    0.215
 dbcsr_finalize                   12328 11.4    0.021    0.035    0.131    0.212
 cube_transpose_2                   554 13.9    0.010    0.012    0.105    0.198
 mp_cart_create                    2448 10.6    0.174    0.186    0.176    0.189
 rs_scatter_matrices                277  9.9    0.002    0.004    0.010    0.189
 integrate_four_center_load         475 10.8    0.001    0.001    0.113    0.185
 hfx_load_balance                     1 11.0    0.000    0.000    0.112    0.184
 hfx_load_balance_range               1 12.0    0.000    0.000    0.101    0.173
 mp_alltoall_i11v                 13770 11.5    0.084    0.173    0.084    0.173
 multiply_cannon_metrocomm1       41304 13.3    0.022    0.023    0.060    0.168
 create_kernel_env                    1  6.0    0.000    0.000    0.145    0.162
 xc_prep_2nd_deriv                    1  7.0    0.000    0.000    0.145    0.162
 pw_scale                           700  9.5    0.115    0.161    0.115    0.161
 vxc_of_r_new                       600  9.0    0.000    0.013    0.003    0.156
 tddfpt_is_nonorthogonal_psi1_p       9  7.0    0.000    0.000    0.154    0.154
 mp_irecv_dv                     159302 13.6    0.092    0.152    0.092    0.152
 dbcsr_merge_all                  10339 12.4    0.061    0.108    0.087    0.142
 multiply_cannon_metrocomm4       39583 13.3    0.059    0.069    0.105    0.139
 cube_transpose_1                   550 14.0    0.009    0.011    0.076    0.139
 create_qs_kind_set                   1  2.0    0.000    0.000    0.128    0.128
 read_qs_kind                         4  3.0    0.046    0.062    0.128    0.128
 dbcsr_create_new                 42525 11.2    0.072    0.098    0.097    0.124
 qs_init_subsys                       1  2.0    0.002    0.002    0.124    0.124
 multiply_cannon_metrocomm2       36141 13.3    0.053    0.060    0.088    0.122
 cp_fm_cholesky_decompose            20  8.0    0.114    0.116    0.114    0.116
 qs_env_setup                         1  3.0    0.000    0.000    0.114    0.115
 mp_allgather_i34                  1721 12.3    0.097    0.115    0.097    0.115
 qs_env_rebuild_pw_env                2  3.5    0.000    0.000    0.114    0.114
 pw_env_rebuild                       1  5.0    0.000    0.000    0.114    0.114
 cp_fm_triangular_invert             20  8.0    0.114    0.114    0.114    0.114
 dbcsr_rep_row_to_rep_col_vec      2745  8.0    0.007    0.008    0.048    0.101
 multiply_cannon_multrec          41304 13.3    0.024    0.096    0.028    0.101
 write_mo_set_to_restart             75  5.0    0.001    0.038    0.030    0.096
 dbcsr_col_vec_to_rep_row          2745  8.0    0.009    0.010    0.059    0.087
 cp_fm_symm                          75  7.0    0.080    0.086    0.080    0.086
 dbcsr_add_d                       4175  7.0    0.002    0.002    0.015    0.086
 dbcsr_add_anytype                 4175  8.0    0.003    0.011    0.013    0.084
 scf_post_calculation_gpw             1  3.0    0.000    0.000    0.083    0.083
 pw_grid_setup                        4  6.0    0.000    0.000    0.083    0.083
 write_available_results              1  4.0    0.000    0.000    0.083    0.083
 pw_grid_setup_internal               4  7.0    0.001    0.002    0.083    0.083
 write_mo_free_results                1  5.0    0.002    0.003    0.083    0.083
 parser_read_line                 18532  4.0    0.003    0.003    0.082    0.083
 parser_read_line_low                32  5.0    0.002    0.019    0.079    0.080
 make_images_data                  3442 13.3    0.021    0.026    0.053    0.079
 cp_fm_write_unformatted             44  7.5    0.064    0.077    0.064    0.078
 broadcast_input_information         32  6.0    0.010    0.010    0.077    0.078
 tddfpt_compute_ritz_vects           10  7.0    0.004    0.005    0.068    0.069
 cp_fm_triangular_multiply           60  8.0    0.060    0.061    0.060    0.061
 mp_bcast_dv                       2825  9.0    0.030    0.059    0.030    0.059
 dbcsr_iterator_start             61016 10.5    0.038    0.046    0.048    0.059
 copy_fm_to_dbcsr_bc               2797 10.6    0.015    0.017    0.052    0.059
 mp_bcast_b_src                     202  8.0    0.048    0.059    0.048    0.059
 hybrid_alltoall_any               4786 13.5    0.021    0.025    0.034    0.059
 write_mo_set_low                     4  6.0    0.000    0.000    0.029    0.058
 dbcsr_copy                       15225  8.5    0.021    0.032    0.046    0.057
 mp_bcast_i_src                     128  7.0    0.043    0.055    0.043    0.055
 pw_grid_sort                         4  8.0    0.035    0.035    0.048    0.051
 tddfpt_write_restart                 2  6.5    0.000    0.028    0.035    0.048
 mp_cart_rank                    211616 11.0    0.035    0.043    0.035    0.043
 -------------------------------------------------------------------------------

 The number of warnings for this run is : 1
 
 -------------------------------------------------------------------------------
  **** **** ******  **  PROGRAM ENDED AT                 2025-03-22 21:37:51.990
 ***** ** ***  *** **   PROGRAM RAN ON                                  n2cn0318
 **    ****   ******    PROGRAM RAN BY                                  metdyn02
 ***** **    ** ** **   PROGRAM PROCESS ID                                561054
  **** **  *******  **  PROGRAM STOPPED IN /scratch/hpc-prf-metdyn/metdyn02_Remi
                                           /10_MOL/05_MOL/aUKBqsEOTmq69kFe5R_nOg
                                           /5k_set_final_qzvp/MTROLA10/DZVP/TDDF
                                           T/RILIM
