 DBCSR| CPU Multiplication driver                                           BLAS (U)
 DBCSR| Multrec recursion limit                                              512 (U)
 DBCSR| Multiplication stack size                                           1000 (D)
 DBCSR| Maximum elements for images                                    UNLIMITED (U)
 DBCSR| Multiplicative factor virtual images                                   1 (U)
 DBCSR| Use multiplication densification                                       T (D)
 DBCSR| Multiplication size stacks                                             3 (U)
 DBCSR| Use memory pool for CPU allocation                                     F (U)
 DBCSR| Number of 3D layers                                               SINGLE (U)
 DBCSR| Use MPI memory allocation                                              F (U)
 DBCSR| Use RMA algorithm                                                      F (U)
 DBCSR| Use Communication thread                                               T (U)
 DBCSR| Communication thread load                                             75 (D)
 DBCSR| MPI: My process id                                                     0
 DBCSR| MPI: Number of processes                                             216
 DBCSR| OMP: Current number of threads                                         4
 DBCSR| OMP: Max number of threads                                             4
 DBCSR| Split modifier for TAS multiplication algorithm                  1.0E+00 (U)


  **** **** ******  **  PROGRAM STARTED AT               2025-03-11 09:37:46.638
 ***** ** ***  *** **   PROGRAM STARTED ON                          i06r01c05s01
 **    ****   ******    PROGRAM STARTED BY                               di38fab
 ***** **    ** ** **   PROGRAM PROCESS ID                               2478443
  **** **  *******  **  PROGRAM STARTED IN /hppfs/scratch/04/di38fab/05_MOL/aUKB
                                           qsEOTmq69kFe5R_nOg/5k_set_final_qzvp/
                                           BUYKOW/aug-cc-pVQZ

 CP2K| version string:                 CP2K version 2025.1 (Development Version)
 CP2K| source code revision number:                                  git:d2e611a
 CP2K| cp2kflags: omp libint fftw3 libxc parallel scalapack max_contr=4         
 CP2K| is freely available from                            https://www.cp2k.org/
 CP2K| Program compiled at                       Thu 06 Mar 2025 05:09:20 PM CET
 CP2K| Program compiled on                                               login02
 CP2K| Program compiled for                                        Supermuc-foss
 CP2K| Data directory path                  /hppfs/work/pn36zo/di38fab/cp2k/data
 CP2K| Input file name                                                    GW.inp

 GLOBAL| Force Environment number                                              1
 GLOBAL| Basis set file name            /hppfs/scratch/04/di38fab/04_TMD/BASIS_A
 GLOBAL| Potential file name            /hppfs/work/pn36zo/di38fab/cp2k/data/ALL
 GLOBAL| MM Potential file name                                     MM_POTENTIAL
 GLOBAL| Coordinate file name                                      __STD_INPUT__
 GLOBAL| Method name                                                        CP2K
 GLOBAL| Project name                                                       MoS2
 GLOBAL| Run type                                                         ENERGY
 GLOBAL| FFT library                                                       FFTW3
 GLOBAL| Diagonalization library                                       ScaLAPACK
 GLOBAL| DGEMM library                                                      BLAS
 GLOBAL| Orthonormality check for eigenvectors                          DISABLED
 GLOBAL| Matrix multiplication library                                 ScaLAPACK
 GLOBAL| All-to-all communication in single precision                          F
 GLOBAL| FFTs using library dependent lengths                                  F
 GLOBAL| Grid backend                                                       AUTO
 GLOBAL| Global print level                                               MEDIUM
 GLOBAL| MPI I/O enabled                                                       T
 GLOBAL| Total number of message passing processes                           216
 GLOBAL| Number of threads for this process                                    4
 GLOBAL| This output is from process                                           0
 GLOBAL| OpenMP stack size per thread (OMP_STACKSIZE)                    default
 GLOBAL| CPU model name             Intel(R) Xeon(R) Platinum 8174 CPU @ 3.10GHz

 MEMORY| system memory details [Kb]
 MEMORY|                        rank 0           min           max       average
 MEMORY| MemTotal             98436660      98436648      98436708      98436679
 MEMORY| MemFree              84077912      84005408      84588900      84188125
 MEMORY| Buffers                     0             0             0             0
 MEMORY| Cached                2415124       2387988       2430568       2406252
 MEMORY| Slab                  1213020       1123772       1228132       1197901
 MEMORY| SReclaimable           264972        253580        274608        266791
 MEMORY| MemLikelyFree        86758008      86670204      87241204      86861170


 *** Fundamental physical constants (SI units) ***

 *** Literature: B. J. Mohr and B. N. Taylor,
 ***             CODATA recommended values of the fundamental physical
 ***             constants: 2006, Web Version 5.1
 ***             http://physics.nist.gov/constants

 Speed of light in vacuum [m/s]                             2.99792458000000E+08
 Magnetic constant or permeability of vacuum [N/A**2]       1.25663706143592E-06
 Electric constant or permittivity of vacuum [F/m]          8.85418781762039E-12
 Planck constant (h) [J*s]                                  6.62606896000000E-34
 Planck constant (h-bar) [J*s]                              1.05457162825177E-34
 Elementary charge [C]                                      1.60217648700000E-19
 Electron mass [kg]                                         9.10938215000000E-31
 Electron g factor [ ]                                     -2.00231930436220E+00
 Proton mass [kg]                                           1.67262163700000E-27
 Fine-structure constant                                    7.29735253760000E-03
 Rydberg constant [1/m]                                     1.09737315685270E+07
 Avogadro constant [1/mol]                                  6.02214179000000E+23
 Boltzmann constant [J/K]                                   1.38065040000000E-23
 Atomic mass unit [kg]                                      1.66053878200000E-27
 Bohr radius [m]                                            5.29177208590000E-11

 *** Conversion factors ***

 [u] -> [a.u.]                                              1.82288848426455E+03
 [Angstrom] -> [Bohr] = [a.u.]                              1.88972613288564E+00
 [a.u.] = [Bohr] -> [Angstrom]                              5.29177208590000E-01
 [a.u.] -> [s]                                              2.41888432650478E-17
 [a.u.] -> [fs]                                             2.41888432650478E-02
 [a.u.] -> [J]                                              4.35974393937059E-18
 [a.u.] -> [N]                                              8.23872205491840E-08
 [a.u.] -> [K]                                              3.15774647902944E+05
 [a.u.] -> [kJ/mol]                                         2.62549961709828E+03
 [a.u.] -> [kcal/mol]                                       6.27509468713739E+02
 [a.u.] -> [Pa]                                             2.94210107994716E+13
 [a.u.] -> [bar]                                            2.94210107994716E+08
 [a.u.] -> [atm]                                            2.90362800883016E+08
 [a.u.] -> [eV]                                             2.72113838565563E+01
 [a.u.] -> [Hz]                                             6.57968392072181E+15
 [a.u.] -> [1/cm] (wave numbers)                            2.19474631370540E+05
 [a.u./Bohr**2] -> [1/cm]                                   5.14048714338585E+03
 

 CELL_TOP| Volume [angstrom^3]:                                     27000.000000
 CELL_TOP| Vector a [angstrom    30.000     0.000     0.000   |a| =    30.000000
 CELL_TOP| Vector b [angstrom     0.000    30.000     0.000   |b| =    30.000000
 CELL_TOP| Vector c [angstrom     0.000     0.000    30.000   |c| =    30.000000
 CELL_TOP| Angle (b,c), alpha [degree]:                                90.000000
 CELL_TOP| Angle (a,c), beta  [degree]:                                90.000000
 CELL_TOP| Angle (a,b), gamma [degree]:                                90.000000
 CELL_TOP| Numerically orthorhombic:                                         YES
 CELL_TOP| Periodicity                                                      NONE

 GENERATE|  Preliminary Number of Bonds generated:                             0
 GENERATE|  Achieved consistency in connectivity generation.

 CELL| Volume [angstrom^3]:                                         27000.000000
 CELL| Vector a [angstrom]:      30.000     0.000     0.000   |a| =    30.000000
 CELL| Vector b [angstrom]:       0.000    30.000     0.000   |b| =    30.000000
 CELL| Vector c [angstrom]:       0.000     0.000    30.000   |c| =    30.000000
 CELL| Angle (b,c), alpha [degree]:                                    90.000000
 CELL| Angle (a,c), beta  [degree]:                                    90.000000
 CELL| Angle (a,b), gamma [degree]:                                    90.000000
 CELL| Numerically orthorhombic:                                             YES
 CELL| Periodicity                                                          NONE

 CELL_REF| Volume [angstrom^3]:                                     27000.000000
 CELL_REF| Vector a [angstrom    30.000     0.000     0.000   |a| =    30.000000
 CELL_REF| Vector b [angstrom     0.000    30.000     0.000   |b| =    30.000000
 CELL_REF| Vector c [angstrom     0.000     0.000    30.000   |c| =    30.000000
 CELL_REF| Angle (b,c), alpha [degree]:                                90.000000
 CELL_REF| Angle (a,c), beta  [degree]:                                90.000000
 CELL_REF| Angle (a,b), gamma [degree]:                                90.000000
 CELL_REF| Numerically orthorhombic:                                         YES
 CELL_REF| Periodicity                                                      NONE

 *******************************************************************************
 *******************************************************************************
 **                                                                           **
 **     #####                         ##              ##                      **
 **    ##   ##            ##          ##              ##                      **
 **   ##     ##                       ##            ######                    **
 **   ##     ##  ##   ##  ##   #####  ##  ##   ####   ##    #####    #####    **
 **   ##     ##  ##   ##  ##  ##      ## ##   ##      ##   ##   ##  ##   ##   **
 **   ##  ## ##  ##   ##  ##  ##      ####     ###    ##   ######   ######    **
 **    ##  ###   ##   ##  ##  ##      ## ##      ##   ##   ##       ##        **
 **     #######   #####   ##   #####  ##  ##  ####    ##    #####   ##        **
 **           ##                                                    ##        **
 **                                                                           **
 **                                                ... make the atoms dance   **
 **                                                                           **
 **            Copyright (C) by CP2K developers group (2000-2025)             **
 **                      J. Chem. Phys. 152, 194103 (2020)                    **
 **                                                                           **
 *******************************************************************************

 DFT| Spin restricted Kohn-Sham (RKS) calculation                            RKS
 DFT| Multiplicity                                                             1
 DFT| Number of spin states                                                    1
 DFT| Charge                                                                   0
 DFT| Self-interaction correction (SIC)                                       NO
 DFT| Cutoffs: density                                              1.000000E-10
 DFT|          gradient                                             1.000000E-10
 DFT|          tau                                                  1.000000E-10
 DFT|          cutoff_smoothing_range                               0.000000E+00
 DFT| XC density smoothing                                                  NONE
 DFT| XC derivatives                                                          PW

 FUNCTIONAL| PBE:
 FUNCTIONAL| J.P.Perdew, K.Burke, M.Ernzerhof, Phys. Rev. Letter, vol. 77, n 18,
 FUNCTIONAL|  pp. 3865-3868, (1996)sx=0.750sc=1.000{spin unpolarized}           


 QS| Method:                                                                GAPW
 QS| Density plane wave grid type                        NON-SPHERICAL FULLSPACE
 QS| Number of grid levels:                                                    4
 QS| Density cutoff [a.u.]:                                                250.0
 QS| Multi grid cutoff [a.u.]: 1) grid level                               250.0
 QS|                           2) grid level                                83.3
 QS|                           3) grid level                                27.8
 QS|                           4) grid level                                 9.3
 QS| Grid level progression factor:                                          3.0
 QS| Relative density cutoff [a.u.]:                                        50.0
 QS| Interaction thresholds: eps_pgf_orb:                                1.0E-12
 QS|                         eps_filter_matrix:                          0.0E+00
 QS|                         eps_core_charge:                            1.0E-14
 QS|                         eps_rho_gspace:                             1.0E-12
 QS|                         eps_rho_rspace:                             1.0E-12
 QS|                         eps_gvg_rspace:                             1.0E-06
 QS|                         eps_ppl:                                    1.0E-02
 QS|                         eps_ppnl:                                   1.0E-08
 QS| GAPW|      One center basis from orbital basis primitives
 QS| GAPW|                   eps_fit:                                    1.0E-04
 QS| GAPW|                   eps_iso:                                    1.0E-12
 QS| GAPW|                   eps_svd:                                    1.0E-08
 QS| GAPW|                   eps_cpc:                                    1.0E-12
 QS| GAPW|   atom-r-grid: quadrature:                                     GC_LOG
 QS| GAPW|      atom-s-grid:  max l :                                          8
 QS| GAPW|      max_l_rho0 :                                                   2


 ATOMIC KIND INFORMATION

  1. Atomic kind: C                                     Number of atoms:       4

     Orbital Basis Set                                               aug-cc-pVQZ

       Number of orbital shell sets:                                          10
       Number of orbital shells:                                              20
       Number of primitive Cartesian functions:                               29
       Number of Cartesian basis functions:                                  105
       Number of spherical basis functions:                                   80
       Norm type:                                                              2

       Normalised Cartesian orbitals:

                        Set   Shell   Orbital            Exponent    Coefficient

                          1       1    1px               0.032180       0.019428
                          1       1    1py               0.032180       0.019428
                          1       1    1pz               0.032180       0.019428

                          2       1    1s                0.041450       0.065472

                          3       1    1dx2              0.076600       0.018357
                          3       1    1dxy              0.076600       0.031796
                          3       1    1dxz              0.076600       0.031796
                          3       1    1dy2              0.076600       0.018357
                          3       1    1dyz              0.076600       0.031796
                          3       1    1dz2              0.076600       0.018357

                          4       1    1px              34.510000       0.000000
                                                         7.915000       0.000000
                                                         2.368000       0.000000
                                                         0.813200       1.100745
                                                         0.289000       0.000000
                                                         0.100700       0.000000
                          4       1    1py              34.510000       0.000000
                                                         7.915000       0.000000
                                                         2.368000       0.000000
                                                         0.813200       1.100745
                                                         0.289000       0.000000
                                                         0.100700       0.000000
                          4       1    1pz              34.510000       0.000000
                                                         7.915000       0.000000
                                                         2.368000       0.000000
                                                         0.813200       1.100745
                                                         0.289000       0.000000
                                                         0.100700       0.000000

                          4       2    2px              34.510000       0.641198
                                                         7.915000       0.683747
                                                         2.368000       0.596637
                                                         0.813200       0.376620
                                                         0.289000       0.140105
                                                         0.100700       0.020217
                          4       2    2py              34.510000       0.641198
                                                         7.915000       0.683747
                                                         2.368000       0.596637
                                                         0.813200       0.376620
                                                         0.289000       0.140105
                                                         0.100700       0.020217
                          4       2    2pz              34.510000       0.641198
                                                         7.915000       0.683747
                                                         2.368000       0.596637
                                                         0.813200       0.376620
                                                         0.289000       0.140105
                                                         0.100700       0.020217

                          4       3    3px              34.510000       0.000000
                                                         7.915000       0.000000
                                                         2.368000       0.000000
                                                         0.813200       0.000000
                                                         0.289000       0.302039
                                                         0.100700       0.000000
                          4       3    3py              34.510000       0.000000
                                                         7.915000       0.000000
                                                         2.368000       0.000000
                                                         0.813200       0.000000
                                                         0.289000       0.302039
                                                         0.100700       0.000000
                          4       3    3pz              34.510000       0.000000
                                                         7.915000       0.000000
                                                         2.368000       0.000000
                                                         0.813200       0.000000
                                                         0.289000       0.302039
                                                         0.100700       0.000000

                          4       4    4px              34.510000       0.000000
                                                         7.915000       0.000000
                                                         2.368000       0.000000
                                                         0.813200       0.000000
                                                         0.289000       0.000000
                                                         0.100700       0.080859
                          4       4    4py              34.510000       0.000000
                                                         7.915000       0.000000
                                                         2.368000       0.000000
                                                         0.813200       0.000000
                                                         0.289000       0.000000
                                                         0.100700       0.080859
                          4       4    4pz              34.510000       0.000000
                                                         7.915000       0.000000
                                                         2.368000       0.000000
                                                         0.813200       0.000000
                                                         0.289000       0.000000
                                                         0.100700       0.080859

                          5       1    1s            33980.000000       0.162319
                                                      5089.000000       0.302313
                                                      1157.000000       0.522143
                                                       326.600000       0.841034
                                                       106.100000       1.247069
                                                        38.110000       1.607436
                                                        14.750000       1.639463
                                                         6.035000       1.095889
                                                         2.530000       0.310322
                                                         0.735500       0.008997
                                                         0.290500      -0.000870
                                                         0.111100       0.000134

                          5       2    2s            33980.000000       0.000000
                                                      5089.000000       0.000000
                                                      1157.000000       0.000000
                                                       326.600000       0.000000
                                                       106.100000       0.000000
                                                        38.110000       0.000000
                                                        14.750000       0.000000
                                                         6.035000       0.000000
                                                         2.530000       0.000000
                                                         0.735500       0.566040
                                                         0.290500       0.000000
                                                         0.111100       0.000000

                          5       3    3s            33980.000000       0.000000
                                                      5089.000000       0.000000
                                                      1157.000000       0.000000
                                                       326.600000       0.000000
                                                       106.100000       0.000000
                                                        38.110000       0.000000
                                                        14.750000       0.000000
                                                         6.035000       0.000000
                                                         2.530000       0.000000
                                                         0.735500       0.000000
                                                         0.290500       0.282013
                                                         0.111100       0.000000

                          5       4    4s            33980.000000      -0.033891
                                                      5089.000000      -0.064843
                                                      1157.000000      -0.110989
                                                       326.600000      -0.182005
                                                       106.100000      -0.271236
                                                        38.110000      -0.373428
                                                        14.750000      -0.413970
                                                         6.035000      -0.388287
                                                         2.530000      -0.168734
                                                         0.735500       0.154985
                                                         0.290500       0.165404
                                                         0.111100       0.039147

                          5       5    5s            33980.000000       0.000000
                                                      5089.000000       0.000000
                                                      1157.000000       0.000000
                                                       326.600000       0.000000
                                                       106.100000       0.000000
                                                        38.110000       0.000000
                                                        14.750000       0.000000
                                                         6.035000       0.000000
                                                         2.530000       0.000000
                                                         0.735500       0.000000
                                                         0.290500       0.000000
                                                         0.111100       0.137150

                          6       1    1fx3              0.187000       0.033853
                          6       1    1fx2y             0.187000       0.075698
                          6       1    1fx2z             0.187000       0.075698
                          6       1    1fxy2             0.187000       0.075698
                          6       1    1fxyz             0.187000       0.131112
                          6       1    1fxz2             0.187000       0.075698
                          6       1    1fy3              0.187000       0.033853
                          6       1    1fy2z             0.187000       0.075698
                          6       1    1fyz2             0.187000       0.075698
                          6       1    1fz3              0.187000       0.033853

                          7       1    1dx2              1.848000       4.821009
                                                         0.649000       0.000000
                                                         0.228000       0.000000
                          7       1    1dxy              1.848000       8.350232
                                                         0.649000       0.000000
                                                         0.228000       0.000000
                          7       1    1dxz              1.848000       8.350232
                                                         0.649000       0.000000
                                                         0.228000       0.000000
                          7       1    1dy2              1.848000       4.821009
                                                         0.649000       0.000000
                                                         0.228000       0.000000
                          7       1    1dyz              1.848000       8.350232
                                                         0.649000       0.000000
                                                         0.228000       0.000000
                          7       1    1dz2              1.848000       4.821009
                                                         0.649000       0.000000
                                                         0.228000       0.000000

                          7       2    2dx2              1.848000       0.000000
                                                         0.649000       0.772392
                                                         0.228000       0.000000
                          7       2    2dxy              1.848000       0.000000
                                                         0.649000       1.337822
                                                         0.228000       0.000000
                          7       2    2dxz              1.848000       0.000000
                                                         0.649000       1.337822
                                                         0.228000       0.000000
                          7       2    2dy2              1.848000       0.000000
                                                         0.649000       0.772392
                                                         0.228000       0.000000
                          7       2    2dyz              1.848000       0.000000
                                                         0.649000       1.337822
                                                         0.228000       0.000000
                          7       2    2dz2              1.848000       0.000000
                                                         0.649000       0.772392
                                                         0.228000       0.000000

                          7       3    3dx2              1.848000       0.000000
                                                         0.649000       0.000000
                                                         0.228000       0.123821
                          7       3    3dxy              1.848000       0.000000
                                                         0.649000       0.000000
                                                         0.228000       0.214465
                          7       3    3dxz              1.848000       0.000000
                                                         0.649000       0.000000
                                                         0.228000       0.214465
                          7       3    3dy2              1.848000       0.000000
                                                         0.649000       0.000000
                                                         0.228000       0.123821
                          7       3    3dyz              1.848000       0.000000
                                                         0.649000       0.000000
                                                         0.228000       0.214465
                          7       3    3dz2              1.848000       0.000000
                                                         0.649000       0.000000
                                                         0.228000       0.123821

                          8       1    1gx4              0.424000       0.105121
                          8       1    1gx3y             0.424000       0.278125
                          8       1    1gx3z             0.424000       0.278125
                          8       1    1gx2y2            0.424000       0.359058
                          8       1    1gx2yz            0.424000       0.621907
                          8       1    1gx2z2            0.424000       0.359058
                          8       1    1gxy3             0.424000       0.278125
                          8       1    1gxy2z            0.424000       0.621907
                          8       1    1gxyz2            0.424000       0.621907
                          8       1    1gxz3             0.424000       0.278125
                          8       1    1gy4              0.424000       0.105121
                          8       1    1gy3z             0.424000       0.278125
                          8       1    1gy2z2            0.424000       0.359058
                          8       1    1gyz3             0.424000       0.278125
                          8       1    1gz4              0.424000       0.105121

                          9       1    1fx3              1.419000       3.235302
                                                         0.485000       0.000000
                          9       1    1fx2y             1.419000       7.234355
                                                         0.485000       0.000000
                          9       1    1fx2z             1.419000       7.234355
                                                         0.485000       0.000000
                          9       1    1fxy2             1.419000       7.234355
                                                         0.485000       0.000000
                          9       1    1fxyz             1.419000      12.530271
                                                         0.485000       0.000000
                          9       1    1fxz2             1.419000       7.234355
                                                         0.485000       0.000000
                          9       1    1fy3              1.419000       3.235302
                                                         0.485000       0.000000
                          9       1    1fy2z             1.419000       7.234355
                                                         0.485000       0.000000
                          9       1    1fyz2             1.419000       7.234355
                                                         0.485000       0.000000
                          9       1    1fz3              1.419000       3.235302
                                                         0.485000       0.000000

                          9       2    2fx3              1.419000       0.000000
                                                         0.485000       0.288984
                          9       2    2fx2y             1.419000       0.000000
                                                         0.485000       0.646187
                          9       2    2fx2z             1.419000       0.000000
                                                         0.485000       0.646187
                          9       2    2fxy2             1.419000       0.000000
                                                         0.485000       0.646187
                          9       2    2fxyz             1.419000       0.000000
                                                         0.485000       1.119229
                          9       2    2fxz2             1.419000       0.000000
                                                         0.485000       0.646187
                          9       2    2fy3              1.419000       0.000000
                                                         0.485000       0.288984
                          9       2    2fy2z             1.419000       0.000000
                                                         0.485000       0.646187
                          9       2    2fyz2             1.419000       0.000000
                                                         0.485000       0.646187
                          9       2    2fz3              1.419000       0.000000
                                                         0.485000       0.288984

                         10       1    1gx4              1.011000       1.146835
                         10       1    1gx3y             1.011000       3.034241
                         10       1    1gx3z             1.011000       3.034241
                         10       1    1gx2y2            1.011000       3.917189
                         10       1    1gx2yz            1.011000       6.784770
                         10       1    1gx2z2            1.011000       3.917189
                         10       1    1gxy3             1.011000       3.034241
                         10       1    1gxy2z            1.011000       6.784770
                         10       1    1gxyz2            1.011000       6.784770
                         10       1    1gxz3             1.011000       3.034241
                         10       1    1gy4              1.011000       1.146835
                         10       1    1gy3z             1.011000       3.034241
                         10       1    1gy2z2            1.011000       3.917189
                         10       1    1gyz3             1.011000       3.034241
                         10       1    1gz4              1.011000       1.146835

     RI Auxiliary Basis Set                                    aug-cc-pVQZ-OPTRI

       Number of orbital shell sets:                                          19
       Number of orbital shells:                                              19
       Number of primitive Cartesian functions:                               19
       Number of Cartesian basis functions:                                  124
       Number of spherical basis functions:                                   89
       Norm type:                                                              2

       Normalised Cartesian orbitals:

                        Set   Shell   Orbital            Exponent    Coefficient

                          1       1    1px               0.047059       0.031242
                          1       1    1py               0.047059       0.031242
                          1       1    1pz               0.047059       0.031242

                          2       1    1s                0.062311       0.088886

                          3       1    1px               0.069085       0.050486
                          3       1    1py               0.069085       0.050486
                          3       1    1pz               0.069085       0.050486

                          4       1    1dx2              0.114693       0.037205
                          4       1    1dxy              0.114693       0.064441
                          4       1    1dxz              0.114693       0.064441
                          4       1    1dy2              0.114693       0.037205
                          4       1    1dyz              0.114693       0.064441
                          4       1    1dz2              0.114693       0.037205

                          5       1    1px               0.151311       0.134517
                          5       1    1py               0.151311       0.134517
                          5       1    1pz               0.151311       0.134517

                          6       1    1s                0.165868       0.185239

                          7       1    1fx3              0.314425       0.108985
                          7       1    1fx2y             0.314425       0.243699
                          7       1    1fx2z             0.314425       0.243699
                          7       1    1fxy2             0.314425       0.243699
                          7       1    1fxyz             0.314425       0.422098
                          7       1    1fxz2             0.314425       0.243699
                          7       1    1fy3              0.314425       0.108985
                          7       1    1fy2z             0.314425       0.243699
                          7       1    1fyz2             0.314425       0.243699
                          7       1    1fz3              0.314425       0.108985

                          8       1    1dx2              0.339088       0.248003
                          8       1    1dxy              0.339088       0.429553
                          8       1    1dxz              0.339088       0.429553
                          8       1    1dy2              0.339088       0.248003
                          8       1    1dyz              0.339088       0.429553
                          8       1    1dz2              0.339088       0.248003

                          9       1    1s                0.432835       0.380322

                         10       1    1gx4              0.675927       0.379018
                         10       1    1gx3y             0.675927       1.002787
                         10       1    1gx3z             0.675927       1.002787
                         10       1    1gx2y2            0.675927       1.294593
                         10       1    1gx2yz            0.675927       2.242301
                         10       1    1gx2z2            0.675927       1.294593
                         10       1    1gxy3             0.675927       1.002787
                         10       1    1gxy2z            0.675927       2.242301
                         10       1    1gxyz2            0.675927       2.242301
                         10       1    1gxz3             0.675927       1.002787
                         10       1    1gy4              0.675927       0.379018
                         10       1    1gy3z             0.675927       1.002787
                         10       1    1gy2z2            0.675927       1.294593
                         10       1    1gyz3             0.675927       1.002787
                         10       1    1gz4              0.675927       0.379018

                         11       1    1fx3              0.726248       0.716796
                         11       1    1fx2y             0.726248       1.602805
                         11       1    1fx2z             0.726248       1.602805
                         11       1    1fxy2             0.726248       1.602805
                         11       1    1fxyz             0.726248       2.776139
                         11       1    1fxz2             0.726248       1.602805
                         11       1    1fy3              0.726248       0.716796
                         11       1    1fy2z             0.726248       1.602805
                         11       1    1fyz2             0.726248       1.602805
                         11       1    1fz3              0.726248       0.716796

                         12       1    1hx5              1.155657       1.187239
                         12       1    1hx4y             1.155657       3.561718
                         12       1    1hx4z             1.155657       3.561718
                         12       1    1hx3y2            1.155657       5.440614
                         12       1    1hx3yz            1.155657       9.423420
                         12       1    1hx3z2            1.155657       5.440614
                         12       1    1hx2y3            1.155657       5.440614
                         12       1    1hx2y2z           1.155657      12.165583
                         12       1    1hx2yz2           1.155657      12.165583
                         12       1    1hx2z3            1.155657       5.440614
                         12       1    1hxy4             1.155657       3.561718
                         12       1    1hxy3z            1.155657       9.423420
                         12       1    1hxy2z2           1.155657      12.165583
                         12       1    1hxyz3            1.155657       9.423420
                         12       1    1hxz4             1.155657       3.561718
                         12       1    1hy5              1.155657       1.187239
                         12       1    1hy4z             1.155657       3.561718
                         12       1    1hy3z2            1.155657       5.440614
                         12       1    1hy2z3            1.155657       5.440614
                         12       1    1hyz4             1.155657       3.561718
                         12       1    1hz5              1.155657       1.187239

                         13       1    1px               1.221757       1.830927
                         13       1    1py               1.221757       1.830927
                         13       1    1pz               1.221757       1.830927

                         14       1    1dx2              1.234971       2.381271
                         14       1    1dxy              1.234971       4.124482
                         14       1    1dxz              1.234971       4.124482
                         14       1    1dy2              1.234971       2.381271
                         14       1    1dyz              1.234971       4.124482
                         14       1    1dz2              1.234971       2.381271

                         15       1    1s                1.924328       1.164446

                         16       1    1gx4              2.190809       9.618290
                         16       1    1gx3y             2.190809      25.447602
                         16       1    1gx3z             2.190809      25.447602
                         16       1    1gx2y2            2.190809      32.852713
                         16       1    1gx2yz            2.190809      56.902568
                         16       1    1gx2z2            2.190809      32.852713
                         16       1    1gxy3             2.190809      25.447602
                         16       1    1gxy2z            2.190809      56.902568
                         16       1    1gxyz2            2.190809      56.902568
                         16       1    1gxz3             2.190809      25.447602
                         16       1    1gy4              2.190809       9.618290
                         16       1    1gy3z             2.190809      25.447602
                         16       1    1gy2z2            2.190809      32.852713
                         16       1    1gyz3             2.190809      25.447602
                         16       1    1gz4              2.190809       9.618290

                         17       1    1dx2              3.110401      11.990523
                         17       1    1dxy              3.110401      20.768195
                         17       1    1dxz              3.110401      20.768195
                         17       1    1dy2              3.110401      11.990523
                         17       1    1dyz              3.110401      20.768195
                         17       1    1dz2              3.110401      11.990523

                         18       1    1px               3.134944       5.946033
                         18       1    1py               3.134944       5.946033
                         18       1    1pz               3.134944       5.946033

                         19       1    1fx3              3.452225      23.915387
                         19       1    1fx2y             3.452225      53.476431
                         19       1    1fx2z             3.452225      53.476431
                         19       1    1fxy2             3.452225      53.476431
                         19       1    1fxyz             3.452225      92.623895
                         19       1    1fxz2             3.452225      53.476431
                         19       1    1fy3              3.452225      23.915387
                         19       1    1fy2z             3.452225      53.476431
                         19       1    1fyz2             3.452225      53.476431
                         19       1    1fz3              3.452225      23.915387

       Atomic covalent radius [Angstrom]:                                  0.770

       Atomic van der Waals radius [Angstrom]:                             1.700

     The atoms of this atomic kind are PAW atoms (GAPW):
       Hard Gaussian function radius:                                      1.512
       Rho0 radius:                                                        1.512
       Maximum GTO radius used for PAW projector construction:            24.566

     GAPW Soft Basis Set                                        aug-cc-pVQZ_soft

       Number of orbital shell sets:                                          10
       Number of orbital shells:                                              20
       Number of primitive Cartesian functions:                               19
       Number of Cartesian basis functions:                                  105
       Number of spherical basis functions:                                   80
       Norm type:                                                              2

       Normalised Cartesian orbitals:

                        Set   Shell   Orbital            Exponent    Coefficient

                          1       1    1px               0.032180       0.019428
                          1       1    1py               0.032180       0.019428
                          1       1    1pz               0.032180       0.019428

                          2       1    1s                0.041450       0.065472

                          3       1    1dx2              0.076600       0.018357
                          3       1    1dxy              0.076600       0.031796
                          3       1    1dxz              0.076600       0.031796
                          3       1    1dy2              0.076600       0.018357
                          3       1    1dyz              0.076600       0.031796
                          3       1    1dz2              0.076600       0.018357

                          4       1    1px               2.368000       0.000000
                                                         0.813200       1.100745
                                                         0.289000       0.000000
                                                         0.100700       0.000000
                          4       1    1py               2.368000       0.000000
                                                         0.813200       1.100745
                                                         0.289000       0.000000
                                                         0.100700       0.000000
                          4       1    1pz               2.368000       0.000000
                                                         0.813200       1.100745
                                                         0.289000       0.000000
                                                         0.100700       0.000000

                          4       2    2px               2.368000       0.596637
                                                         0.813200       0.376620
                                                         0.289000       0.140105
                                                         0.100700       0.020217
                          4       2    2py               2.368000       0.596637
                                                         0.813200       0.376620
                                                         0.289000       0.140105
                                                         0.100700       0.020217
                          4       2    2pz               2.368000       0.596637
                                                         0.813200       0.376620
                                                         0.289000       0.140105
                                                         0.100700       0.020217

                          4       3    3px               2.368000       0.000000
                                                         0.813200       0.000000
                                                         0.289000       0.302039
                                                         0.100700       0.000000
                          4       3    3py               2.368000       0.000000
                                                         0.813200       0.000000
                                                         0.289000       0.302039
                                                         0.100700       0.000000
                          4       3    3pz               2.368000       0.000000
                                                         0.813200       0.000000
                                                         0.289000       0.302039
                                                         0.100700       0.000000

                          4       4    4px               2.368000       0.000000
                                                         0.813200       0.000000
                                                         0.289000       0.000000
                                                         0.100700       0.080859
                          4       4    4py               2.368000       0.000000
                                                         0.813200       0.000000
                                                         0.289000       0.000000
                                                         0.100700       0.080859
                          4       4    4pz               2.368000       0.000000
                                                         0.813200       0.000000
                                                         0.289000       0.000000
                                                         0.100700       0.080859

                          5       1    1s                2.530000       0.310322
                                                         0.735500       0.008997
                                                         0.290500      -0.000870
                                                         0.111100       0.000134

                          5       2    2s                2.530000       0.000000
                                                         0.735500       0.566040
                                                         0.290500       0.000000
                                                         0.111100       0.000000

                          5       3    3s                2.530000       0.000000
                                                         0.735500       0.000000
                                                         0.290500       0.282013
                                                         0.111100       0.000000

                          5       4    4s                2.530000      -0.168734
                                                         0.735500       0.154985
                                                         0.290500       0.165404
                                                         0.111100       0.039147

                          5       5    5s                2.530000       0.000000
                                                         0.735500       0.000000
                                                         0.290500       0.000000
                                                         0.111100       0.137150

                          6       1    1fx3              0.187000       0.033853
                          6       1    1fx2y             0.187000       0.075698
                          6       1    1fx2z             0.187000       0.075698
                          6       1    1fxy2             0.187000       0.075698
                          6       1    1fxyz             0.187000       0.131112
                          6       1    1fxz2             0.187000       0.075698
                          6       1    1fy3              0.187000       0.033853
                          6       1    1fy2z             0.187000       0.075698
                          6       1    1fyz2             0.187000       0.075698
                          6       1    1fz3              0.187000       0.033853

                          7       1    1dx2              1.848000       4.821009
                                                         0.649000       0.000000
                                                         0.228000       0.000000
                          7       1    1dxy              1.848000       8.350232
                                                         0.649000       0.000000
                                                         0.228000       0.000000
                          7       1    1dxz              1.848000       8.350232
                                                         0.649000       0.000000
                                                         0.228000       0.000000
                          7       1    1dy2              1.848000       4.821009
                                                         0.649000       0.000000
                                                         0.228000       0.000000
                          7       1    1dyz              1.848000       8.350232
                                                         0.649000       0.000000
                                                         0.228000       0.000000
                          7       1    1dz2              1.848000       4.821009
                                                         0.649000       0.000000
                                                         0.228000       0.000000

                          7       2    2dx2              1.848000       0.000000
                                                         0.649000       0.772392
                                                         0.228000       0.000000
                          7       2    2dxy              1.848000       0.000000
                                                         0.649000       1.337822
                                                         0.228000       0.000000
                          7       2    2dxz              1.848000       0.000000
                                                         0.649000       1.337822
                                                         0.228000       0.000000
                          7       2    2dy2              1.848000       0.000000
                                                         0.649000       0.772392
                                                         0.228000       0.000000
                          7       2    2dyz              1.848000       0.000000
                                                         0.649000       1.337822
                                                         0.228000       0.000000
                          7       2    2dz2              1.848000       0.000000
                                                         0.649000       0.772392
                                                         0.228000       0.000000

                          7       3    3dx2              1.848000       0.000000
                                                         0.649000       0.000000
                                                         0.228000       0.123821
                          7       3    3dxy              1.848000       0.000000
                                                         0.649000       0.000000
                                                         0.228000       0.214465
                          7       3    3dxz              1.848000       0.000000
                                                         0.649000       0.000000
                                                         0.228000       0.214465
                          7       3    3dy2              1.848000       0.000000
                                                         0.649000       0.000000
                                                         0.228000       0.123821
                          7       3    3dyz              1.848000       0.000000
                                                         0.649000       0.000000
                                                         0.228000       0.214465
                          7       3    3dz2              1.848000       0.000000
                                                         0.649000       0.000000
                                                         0.228000       0.123821

                          8       1    1gx4              0.424000       0.105121
                          8       1    1gx3y             0.424000       0.278125
                          8       1    1gx3z             0.424000       0.278125
                          8       1    1gx2y2            0.424000       0.359058
                          8       1    1gx2yz            0.424000       0.621907
                          8       1    1gx2z2            0.424000       0.359058
                          8       1    1gxy3             0.424000       0.278125
                          8       1    1gxy2z            0.424000       0.621907
                          8       1    1gxyz2            0.424000       0.621907
                          8       1    1gxz3             0.424000       0.278125
                          8       1    1gy4              0.424000       0.105121
                          8       1    1gy3z             0.424000       0.278125
                          8       1    1gy2z2            0.424000       0.359058
                          8       1    1gyz3             0.424000       0.278125
                          8       1    1gz4              0.424000       0.105121

                          9       1    1fx3              1.419000       3.235302
                                                         0.485000       0.000000
                          9       1    1fx2y             1.419000       7.234355
                                                         0.485000       0.000000
                          9       1    1fx2z             1.419000       7.234355
                                                         0.485000       0.000000
                          9       1    1fxy2             1.419000       7.234355
                                                         0.485000       0.000000
                          9       1    1fxyz             1.419000      12.530271
                                                         0.485000       0.000000
                          9       1    1fxz2             1.419000       7.234355
                                                         0.485000       0.000000
                          9       1    1fy3              1.419000       3.235302
                                                         0.485000       0.000000
                          9       1    1fy2z             1.419000       7.234355
                                                         0.485000       0.000000
                          9       1    1fyz2             1.419000       7.234355
                                                         0.485000       0.000000
                          9       1    1fz3              1.419000       3.235302
                                                         0.485000       0.000000

                          9       2    2fx3              1.419000       0.000000
                                                         0.485000       0.288984
                          9       2    2fx2y             1.419000       0.000000
                                                         0.485000       0.646187
                          9       2    2fx2z             1.419000       0.000000
                                                         0.485000       0.646187
                          9       2    2fxy2             1.419000       0.000000
                                                         0.485000       0.646187
                          9       2    2fxyz             1.419000       0.000000
                                                         0.485000       1.119229
                          9       2    2fxz2             1.419000       0.000000
                                                         0.485000       0.646187
                          9       2    2fy3              1.419000       0.000000
                                                         0.485000       0.288984
                          9       2    2fy2z             1.419000       0.000000
                                                         0.485000       0.646187
                          9       2    2fyz2             1.419000       0.000000
                                                         0.485000       0.646187
                          9       2    2fz3              1.419000       0.000000
                                                         0.485000       0.288984

                         10       1    1gx4              1.011000       1.146835
                         10       1    1gx3y             1.011000       3.034241
                         10       1    1gx3z             1.011000       3.034241
                         10       1    1gx2y2            1.011000       3.917189
                         10       1    1gx2yz            1.011000       6.784770
                         10       1    1gx2z2            1.011000       3.917189
                         10       1    1gxy3             1.011000       3.034241
                         10       1    1gxy2z            1.011000       6.784770
                         10       1    1gxyz2            1.011000       6.784770
                         10       1    1gxz3             1.011000       3.034241
                         10       1    1gy4              1.011000       1.146835
                         10       1    1gy3z             1.011000       3.034241
                         10       1    1gy2z2            1.011000       3.917189
                         10       1    1gyz3             1.011000       3.034241
                         10       1    1gz4              1.011000       1.146835

     AE Potential information for                                            ALL

       Description:                                       All-electron potential
                                          Krack, Parrinello, PCCP 2, 2105 (2000)

       Gaussian exponent of the core charge distribution:               4.109048
       Electronic configuration (s p d ...):                           4   2   0

  2. Atomic kind: H                                     Number of atoms:       8

     Orbital Basis Set                                               aug-cc-pVQZ

       Number of orbital shell sets:                                           8
       Number of orbital shells:                                              14
       Number of primitive Cartesian functions:                               16
       Number of Cartesian basis functions:                                   55
       Number of spherical basis functions:                                   46
       Norm type:                                                              2

       Normalised Cartesian orbitals:

                        Set   Shell   Orbital            Exponent    Coefficient

                          1       1    1s                0.023630       0.042954

                          2       1    1px               0.084800       0.065228
                          2       1    1py               0.084800       0.065228
                          2       1    1pz               0.084800       0.065228

                          3       1    1s               82.640000       0.000000
                                                        12.410000       0.000000
                                                         2.824000       0.000000
                                                         0.797700       0.601575
                                                         0.258100       0.000000
                                                         0.089890       0.000000

                          3       2    2s               82.640000       0.000000
                                                        12.410000       0.000000
                                                         2.824000       0.000000
                                                         0.797700       0.000000
                                                         0.258100       0.258078
                                                         0.089890       0.000000

                          3       3    3s               82.640000       0.039186
                                                        12.410000       0.072302
                                                         2.824000       0.117344
                                                         0.797700       0.154530
                                                         0.258100       0.128360
                                                         0.089890       0.034648

                          3       4    4s               82.640000       0.000000
                                                        12.410000       0.000000
                                                         2.824000       0.000000
                                                         0.797700       0.000000
                                                         0.258100       0.000000
                                                         0.089890       0.117002

                          4       1    1dx2              0.190000       0.089997
                          4       1    1dxy              0.190000       0.155879
                          4       1    1dxz              0.190000       0.155879
                          4       1    1dy2              0.190000       0.089997
                          4       1    1dyz              0.190000       0.155879
                          4       1    1dz2              0.190000       0.089997

                          5       1    1px               2.292000       4.019836
                                                         0.838000       0.000000
                                                         0.292000       0.000000
                          5       1    1py               2.292000       4.019836
                                                         0.838000       0.000000
                                                         0.292000       0.000000
                          5       1    1pz               2.292000       4.019836
                                                         0.838000       0.000000
                                                         0.292000       0.000000

                          5       2    2px               2.292000       0.000000
                                                         0.838000       1.142865
                                                         0.292000       0.000000
                          5       2    2py               2.292000       0.000000
                                                         0.838000       1.142865
                                                         0.292000       0.000000
                          5       2    2pz               2.292000       0.000000
                                                         0.838000       1.142865
                                                         0.292000       0.000000

                          5       3    3px               2.292000       0.000000
                                                         0.838000       0.000000
                                                         0.292000       0.305963
                          5       3    3py               2.292000       0.000000
                                                         0.838000       0.000000
                                                         0.292000       0.305963
                          5       3    3pz               2.292000       0.000000
                                                         0.838000       0.000000
                                                         0.292000       0.305963

                          6       1    1fx3              0.360000       0.147787
                          6       1    1fx2y             0.360000       0.330461
                          6       1    1fx2z             0.360000       0.330461
                          6       1    1fxy2             0.360000       0.330461
                          6       1    1fxyz             0.360000       0.572375
                          6       1    1fxz2             0.360000       0.330461
                          6       1    1fy3              0.360000       0.147787
                          6       1    1fy2z             0.360000       0.330461
                          6       1    1fyz2             0.360000       0.330461
                          6       1    1fz3              0.360000       0.147787

                          7       1    1dx2              2.062000       5.840024
                                                         0.662000       0.000000
                          7       1    1dxy              2.062000      10.115218
                                                         0.662000       0.000000
                          7       1    1dxz              2.062000      10.115218
                                                         0.662000       0.000000
                          7       1    1dy2              2.062000       5.840024
                                                         0.662000       0.000000
                          7       1    1dyz              2.062000      10.115218
                                                         0.662000       0.000000
                          7       1    1dz2              2.062000       5.840024
                                                         0.662000       0.000000

                          7       2    2dx2              2.062000       0.000000
                                                         0.662000       0.799670
                          7       2    2dxy              2.062000       0.000000
                                                         0.662000       1.385069
                          7       2    2dxz              2.062000       0.000000
                                                         0.662000       1.385069
                          7       2    2dy2              2.062000       0.000000
                                                         0.662000       0.799670
                          7       2    2dyz              2.062000       0.000000
                                                         0.662000       1.385069
                          7       2    2dz2              2.062000       0.000000
                                                         0.662000       0.799670

                          8       1    1fx3              1.397000       3.123535
                          8       1    1fx2y             1.397000       6.984436
                          8       1    1fx2z             1.397000       6.984436
                          8       1    1fxy2             1.397000       6.984436
                          8       1    1fxyz             1.397000      12.097399
                          8       1    1fxz2             1.397000       6.984436
                          8       1    1fy3              1.397000       3.123535
                          8       1    1fy2z             1.397000       6.984436
                          8       1    1fyz2             1.397000       6.984436
                          8       1    1fz3              1.397000       3.123535

     RI Auxiliary Basis Set                                    aug-cc-pVQZ-OPTRI

       Number of orbital shell sets:                                          15
       Number of orbital shells:                                              15
       Number of primitive Cartesian functions:                               15
       Number of Cartesian basis functions:                                   84
       Number of spherical basis functions:                                   63
       Norm type:                                                              2

       Normalised Cartesian orbitals:

                        Set   Shell   Orbital            Exponent    Coefficient

                          1       1    1s                0.172202       0.190519

                          2       1    1dx2              0.411937       0.348629
                          2       1    1dxy              0.411937       0.603843
                          2       1    1dxz              0.411937       0.603843
                          2       1    1dy2              0.411937       0.348629
                          2       1    1dyz              0.411937       0.603843
                          2       1    1dz2              0.411937       0.348629

                          3       1    1s                0.462666       0.399817

                          4       1    1px               0.544212       0.666270
                          4       1    1py               0.544212       0.666270
                          4       1    1pz               0.544212       0.666270

                          5       1    1fx3              0.798039       0.886153
                          5       1    1fx2y             0.798039       1.981498
                          5       1    1fx2z             0.798039       1.981498
                          5       1    1fxy2             0.798039       1.981498
                          5       1    1fxyz             0.798039       3.432056
                          5       1    1fxz2             0.798039       1.981498
                          5       1    1fy3              0.798039       0.886153
                          5       1    1fy2z             0.798039       1.981498
                          5       1    1fyz2             0.798039       1.981498
                          5       1    1fz3              0.798039       0.886153

                          6       1    1gx4              1.030651       1.209184
                          6       1    1gx3y             1.030651       3.199200
                          6       1    1gx3z             1.030651       3.199200
                          6       1    1gx2y2            1.030651       4.130150
[...]
 rpa_ri_compute_en                    1  5.0    0.001    0.004 1242.125 1242.129
 rpa_num_int                          1  6.0    0.002    0.002 1240.568 1240.697
 compute_GW_self_energy             100  7.0    0.002    0.002  936.388  944.703
 compute_GW_self_energy_deep        100  8.0  752.626  754.016  935.210  943.525
 scf_env_do_scf                       1  3.0    0.000    0.000  335.188  335.196
 scf_env_do_scf_inner_loop           76  4.0    0.002    0.005  335.188  335.196
 qs_ks_build_kohn_sham_matrix        77  7.0    0.011    0.013  296.472  296.585
 qs_ks_update_qs_env                 76  5.0    0.001    0.001  294.610  294.722
 rebuild_ks_matrix                   76  6.0    0.000    0.001  294.599  294.710
 start_bse_calculation                1  7.0    0.001    0.005  289.833  289.837
 parallel_gemm_fm                   373  8.4    0.001    0.001  243.804  251.556
 parallel_gemm_fm_gemm              373  9.4    0.001    0.001  243.803  251.555
 cp_fm_gemm                         373 10.4  243.802  251.554  243.802  251.554
 cp_fm_syevd                         82  7.0    0.001    0.001  231.656  232.185
 cp_fm_redistribute_end              82  8.0  115.742  231.856  116.036  231.862
 cp_fm_syevd_base                    82  8.0  115.178  230.486  115.178  230.486
 hfx_ks_matrix                       77  8.0    0.003    0.004  209.492  209.564
 integrate_four_center               77  9.0    1.714    3.311  209.486  209.548
 create_hermitian_form_of_ABBA        1  8.0    0.001    0.001  149.200  149.278
 integrate_four_center_main          77 10.0    0.833    2.083  121.222  130.076
 diagonalize_C                        1  8.0    0.002    0.003  129.252  129.284
 integrate_four_center_bin        15228 11.0  120.389  129.173  120.389  129.173
 cp_fm_power                          2  7.5    0.366    0.378  120.586  120.744
 calc_screening_functions             1 10.0   54.667   58.525   60.590   64.568
 mp_sync                            827  9.5   23.265   42.527   23.265   42.527
 fft_wrap_pw1pw2                   1608  9.9    0.025    0.032   23.688   24.049
 sum_up_and_integrate                77  8.0    0.001    0.001   23.929   23.972
 integrate_v_rspace                  77  9.0    0.002    0.002   23.894   23.941
 qs_rho_update_rho_low               77  5.0    0.001    0.001   23.431   23.434
 fft_wrap_pw1pw2_250               1146 11.1    0.797    0.879   22.450   22.868
 calculate_rho_elec                  77  6.0    0.168    0.180   20.844   20.846
 fft3d_ps                          1608 11.9    7.562    8.111   20.320   20.696
 mp_alltoall_d11v                  1448  9.5   17.481   19.265   17.481   19.265
 pw_poisson_solve                    77  8.0    0.450    0.487   19.071   19.081
 density_rs2pw                       77  7.0    0.004    0.005   15.594   17.091
 rs_gather_matrices                  77 10.0    0.010    0.032   16.109   17.012
 mp2_ri_gpw_compute_in                1  5.0    0.022    0.028   16.856   16.861
 mp2_ri_gpw_compute_in_loop           1  6.0    0.000    0.000   16.786   16.798
 grid_integrate_task_list            77 10.0    0.883   16.720    0.883   16.720
 transfer_rs2pw                     386  8.4    0.008    0.017   13.638   15.139
 contract_B_L                         4  7.0    0.068    0.079   12.634   15.032
 mp_alltoall_z22v                  1608 13.9   10.943   14.017   10.943   14.017
 prepare_gapw_den                    77  8.0    0.002    0.003   13.857   13.916
 mp_waitany                       19488 11.5   11.736   13.426   11.736   13.426
 qs_vxc_create                       77  8.0    0.001    0.001   13.410   13.411
 xc_vxc_pw_create                    76  9.0    0.213    0.245   13.409   13.409
 ps_wavelet_solve                    77  9.0    7.594   10.994   13.063   13.134
 mp_sum_d                         16563  6.9   10.795   13.131   10.795   13.131
 grid_collocate_task_list            77  7.0    4.753   12.723    4.753   12.723
 transfer_rs2pw_250                 155 10.0    1.252    1.434   10.502   11.982
 qs_scf_new_mos                      76  5.0    0.001    0.001   11.548   11.585
 xc_pw_derive                       456 11.0    0.004    0.005   10.192   10.929
 powell_optimize                3963923 11.0    9.820   10.829    9.820   10.829
 eigensolver_symm                    77  6.0    0.003    0.004   10.687   10.697
 mp_alltoall_d54                     77 10.0    4.149   10.357    4.149   10.357
 calculate_rho_atom                 308  9.0    2.396    8.687    2.396    8.687
 calculate_vxc_atom                  77  8.0    0.064    0.749    8.458    8.459
 cp_fm_syrk                           2  8.5    7.947    8.282    7.947    8.282
 yz_to_x                            613 13.2    0.549    0.682    6.137    8.151
 mp2_eri_3c_integrate                 1  7.0    0.039    0.060    3.052    7.836
 integrate_set_3c                 43992  8.0    2.722    7.059    3.012    7.789
 mp_sum_dv                        41281  9.8    7.188    7.642    7.188    7.642
 mp_cart_create                     565  9.9    5.176    7.607    5.177    7.608
 gaVxcgb_GC                         152  9.0    0.175    7.589    0.175    7.589
 dbt_pgrid_create_expert             84 10.8    0.000    0.000    5.151    7.583
 xc_pw_divergence                    76 10.0    0.002    0.002    6.917    7.580
 dbt_total                            8  8.0    0.000    0.000    7.374    7.374
 dbt_contract                         4  9.0    0.001    0.001    6.954    6.966
 potential_pw2rs                     77 10.0    0.016    0.022    6.899    6.962
 transfer_pw2rs                     386 10.6    0.006    0.008    6.485    6.586
 xc_rho_set_and_dset_create          76 10.0    0.167    0.209    6.121    6.557
 create_B                             1  8.0    0.000    0.004    6.460    6.521
 x_to_yz                            687 12.9    0.808    0.947    6.109    6.468
 calc_pair_dist_radii                 1 10.0    2.027    2.095    5.923    6.316
 dbt_tas_multiply                     8 11.5    0.000    0.000    6.220    6.220
 dbt_tas_total                        8 12.5    0.002    0.003    6.216    6.217
 gspace_mixing                       75  5.0    0.163    0.175    5.876    5.877
 rpa_num_int_RPA_matrix_operati     100  7.0    0.001    0.003    5.811    5.813
 integrate_vhg0_rspace               77  8.0    0.826    0.882    5.382    5.428
 integrate_four_center_load          77 10.0    0.000    0.001    4.022    5.353
 hfx_load_balance                     1 11.0    0.000    0.000    4.021    5.352
 mp_sum_l                          1015  6.3    4.040    5.347    4.040    5.347
 hfx_load_balance_range               1 12.0    0.000    0.002    3.959    5.290
 mp_waitall_1                     80698 12.0    4.347    5.286    4.347    5.286
 mp_sum_dm                         3777  7.6    5.045    5.179    5.045    5.179
 calc_mat_Q                         100  8.0    0.000    0.001    5.113    5.148
 contract_S_to_Q                    100  9.0    0.001    0.001    5.091    5.126
 create_A                             1  8.0    0.006    0.010    4.403    4.458
 broyden_mixing                      75  6.0    4.090    4.187    4.221    4.286
 put_rho0_on_grid                    77  9.0    0.181    0.247    3.698    3.756
 dbt_tas_dbm                          8 13.5    0.000    0.000    3.752    3.752
 dbm_multiply                         8 15.5    3.246    3.665    3.246    3.665
 transfer_pw2rs_250                 155 11.0    1.111    1.307    3.408    3.661
 dbt_tas_mm_1N                        6 14.5    0.000    0.000    3.233    3.652
 qs_energies_init_hamiltonians        1  3.0    0.000    0.000    3.563    3.563
 build_core_hamiltonian_matrix        1  4.0    0.000    0.000    3.550    3.550
 overlap_condnum                      1  5.0    0.000    0.001    3.531    3.548
 arnoldi_conjugate_gradient           5  6.0    0.068    0.084    3.272    3.272
 calculate_rho_atom_coeff            77  6.0    0.085    0.176    2.586    2.587
 mp_waitall_2                        50 15.7    0.594    2.400    0.594    2.400
 dbt_tas_replicate                    8 13.5    0.178    0.218    0.619    2.269
 dbcsr_sym_matrix_vector_mult     10015  7.0    0.158    0.176    1.872    2.161
 mp_isendrecv_dv                  66220 12.0    0.842    2.119    0.842    2.119
 mp_alltoall_d45                     78 10.0    1.356    2.113    1.356    2.113
 cp_fm_to_fm_submat_general         112 10.1    1.382    2.043    1.382    2.043
 fm_general_add_bse                   5 10.2    0.000    0.000    1.886    2.002
 integrate_four_center_getP          77 10.0    0.131    0.170    1.985    1.990
 dbt_tas_communicate_buffer          17 15.8    0.005    0.006    0.339    1.986
 dbt_tas_replicate_communicate_       6 14.5    0.000    0.000    0.327    1.975
 integrate_four_center_dist_KS       77 10.0    0.076    0.084    1.897    1.901
 compute_vec_Sigma_x_minus_vxc_       1  4.0    0.000    0.000    1.894    1.894
 transfer_pw2rs_30                   77 12.0    0.706    0.780    1.592    1.740
 transfer_rs2pw_30                   77  9.0    0.727    0.762    1.646    1.693
 create_integ_mat                     4  6.0    0.008    0.016    1.542    1.692
 array2fm                             4  7.0    0.000    0.000    1.369    1.667
 create_qs_kind_set                   1  2.0    0.000    0.000    1.544    1.545
 read_qs_kind                         4  3.0    0.860    0.911    1.544    1.545
 calculate_rho0_atom                308  9.0    1.401    1.470    1.401    1.470
 xc_functional_eval                 380 10.9    0.001    0.002    1.039    1.437
 pbe_lda_eval                       380 11.9    1.039    1.436    1.039    1.436
 dbt_tas_estimate_result_nze          4 12.0    0.023    0.030    1.380    1.380
 mp_sendrecv_dv                   33110 10.0    1.241    1.287    1.241    1.287
 transfer_rs2pw_90                   77  9.0    0.238    0.310    0.975    1.263
 pw_scatter_p                       841 12.1    1.097    1.246    1.097    1.246
 mp_bcast_dv                      10097  9.0    0.541    1.231    0.541    1.231
 cp_fm_cholesky_invert              101  8.0    1.089    1.179    1.089    1.179
 rs_grid_zero                       387 11.2    1.113    1.165    1.113    1.165
 dbcsr_multiply_generic             129  8.1    0.007    0.008    1.024    1.124
 transfer_pw2rs_90                   77 12.0    0.231    0.268    0.993    1.091
 dbt_copy                            12 10.1    0.000    0.001    0.910    1.067
 Vh_1c_gg_integrals                  77  8.0    0.031    0.844    0.879    1.055
 cp2k_distribution_to_z_slices       77  9.0    0.354    0.390    0.831    1.018
 pw_gather_p                        767 11.8    0.850    1.009    0.850    1.009
 dbcsr_rep_row_to_rep_col_vec     10015  8.0    0.054    0.075    0.423    0.959
 dbcsr_add_d                      15084  7.0    0.014    0.016    0.134    0.903
 dbcsr_add_anytype                15084  8.0    0.018    0.117    0.120    0.886
 fft_wrap_pw1pw2_90                 154 10.5    0.023    0.043    0.760    0.879
 cp_fm_uplo_to_full                 103  8.0    0.650    0.850    0.650    0.850
 pw_derive                          687 11.3    0.754    0.816    0.754    0.816
 cp_fm_cholesky_decompose           102  9.0    0.728    0.798    0.728    0.798
 copy_dbcsr_to_fm                   111  6.6    0.002    0.003    0.701    0.756
 dbcsr_col_vec_to_rep_row         10015  8.0    0.072    0.100    0.549    0.731
 abc_contract                     43992  9.0    0.290    0.730    0.290    0.730
 array2fm_info                        4  8.0    0.586    0.707    0.606    0.725
 cp_fm_redistribute_start            82  8.0    0.291    0.478    0.441    0.708
 dbt_reshape                          8 11.6    0.150    0.176    0.532    0.701
 parser_read_line                181798  4.0    0.062    0.069    0.684    0.698
 multiply_cannon                    129  9.1    0.015    0.017    0.590    0.666
 dbcsr_complete_redistribute        267  8.4    0.097    0.118    0.618    0.650
 compute_Erpa_by_freq_int           100  8.0    0.002    0.002    0.644    0.645
 pw_copy                           1150 10.6    0.587    0.645    0.587    0.645
 parser_read_line_low               201  5.0    0.061    0.261    0.622    0.636
 pw_poisson_rebuild                  77  9.0    0.000    0.000    0.612    0.635
 ps_wavelet_create                    1 10.0    0.000    0.000    0.612    0.635
 RS_z_slice_distribution              1 11.0    0.500    0.597    0.612    0.635
 calculate_dm_sparse                 76  6.0    0.001    0.001    0.591    0.633
 cp_dbcsr_plus_fm_fm_t               76  7.0    0.001    0.002    0.589    0.630
 multiply_cannon_loop               129 10.1    0.020    0.023    0.549    0.626
 broadcast_input_information        201  6.0    0.147    0.159    0.561    0.599
 array2fm_fill                        4  8.0    0.197    0.279    0.388    0.589
 dbcsr_finalize                   16779 10.4    0.017    0.181    0.118    0.587
 init_scf_run                         1  3.0    0.000    0.000    0.541    0.541
 transfer_rs2pw_10                   77  9.0    0.185    0.196    0.507    0.518
 transfer_pw2rs_10                   77 12.0    0.183    0.226    0.487    0.500
 multiply_cannon_multrec           2964 11.1    0.394    0.491    0.397    0.494
 fm_general_add_bse_4_buf_from_       1 10.0    0.418    0.475    0.418    0.475
 dbt_communicate_buffer               8 12.6    0.003    0.003    0.304    0.473
 dbt_remap                            8 10.0    0.002    0.003    0.468    0.471
 pw_poisson_set                      78  8.9    0.002    0.002    0.460    0.469
 update_ks_atom                      77  8.0    0.063    0.177    0.336    0.459
 fm_general_add_bse_1_setup           5 11.2    0.411    0.453    0.411    0.453
 mp_wait                            149  9.0    0.190    0.450    0.190    0.450
 hybrid_alltoall_any                371 11.0    0.204    0.238    0.406    0.440
 fm_general_add_bse_5_comm_buff       5 11.2    0.000    0.000    0.223    0.424
 communicate_buffer                   5 12.2    0.001    0.001    0.223    0.424
 cp_fm_symm                          77  7.0    0.409    0.421    0.409    0.421
 make_m2s                           258  9.1    0.006    0.007    0.379    0.420
 dbcsr_desymmetrize_deep            113  7.5    0.023    0.028    0.387    0.417
 mult_B_with_W                        1  8.0    0.000    0.000    0.345    0.417
 fm_general_add_bse_4_buf_from_       1 10.0    0.379    0.412    0.379    0.412
 mp_sum_iv                          339  9.5    0.239    0.410    0.239    0.410
 scf_env_initial_rho_setup            1  4.0    0.000    0.000    0.394    0.394
 dbt_split_blocks_generic            20  8.8    0.158    0.169    0.365    0.391
 mp_isend_dm3                      2784 11.5    0.178    0.390    0.178    0.390
 mp_isend_dv                      26482 12.1    0.209    0.389    0.209    0.389
 dbcsr_sym_matrix_vector_mult_l   10015  8.0    0.080    0.359    0.111    0.386
 mp_irecv_dm3                      2784 11.5    0.196    0.381    0.196    0.381
 mp_max_i                           625  2.9    0.186    0.380    0.186    0.380
 pw_copy_to_array                   767 11.8    0.313    0.375    0.313    0.375
 mp2_main_alloc_hfx                   1  4.0    0.161    0.375    0.161    0.375
 pw_integral_ab_c1d_c1d_gs           77  9.0    0.250    0.253    0.343    0.374
 make_images                        258 10.1    0.052    0.064    0.329    0.371
 ao_to_mo_and_store_B_mult_gw_1       6  7.0    0.000    0.000    0.310    0.363
 mp_sum_i                            21  9.7    0.216    0.362    0.216    0.362
 restraint_control                    1  2.0    0.000    0.000    0.215    0.361
 array2fm_buffer_send                 4  8.0    0.296    0.338    0.296    0.338
 pw_copy_from_array                 841 12.1    0.255    0.333    0.255    0.333
 ao_to_mo_and_store_B_mult_bse_       6  7.0    0.000    0.000    0.286    0.333
 cp_fm_create                       393  7.8    0.236    0.325    0.236    0.325
 qs_init_subsys                       1  2.0    0.007    0.008    0.323    0.324
 pw_axpy                            765  9.3    0.277    0.315    0.277    0.315
 fft_wrap_pw1pw2_30                 154 10.5    0.004    0.005    0.302    0.314
 allocate_matrices_gw                 1  7.0    0.002    0.002    0.184    0.314
 dbcsr_merge_all                  15866 11.0    0.020    0.201    0.091    0.311
 get_vec_sigma_x                      1  8.0    0.001    0.001    0.167    0.306
 mp_alltoall_z11v                   308 13.5    0.288    0.301    0.288    0.301
 copy_fm_to_dbcsr                   156  8.1    0.001    0.001    0.281    0.297
 mp_bcast_dm                       2464  9.0    0.273    0.292    0.273    0.292
 mp_bcast_i_src                     804  7.0    0.177    0.286    0.177    0.286
 mp_bcast_am_src                    201  7.0    0.197    0.244    0.216    0.278
 dbcsr_copy                       40813  7.5    0.153    0.179    0.243    0.276
 dbm_reserve_blocks                  68 14.1    0.249    0.273    0.249    0.273
 dbcsr_iterator_start            118535  8.7    0.134    0.213    0.158    0.271
 qs_env_setup                         1  3.0    0.000    0.000    0.243    0.258
 qs_env_rebuild_pw_env                2  3.5    0.000    0.000    0.242    0.257
 pw_env_rebuild                       1  5.0    0.001    0.001    0.242    0.257
 make_images_data                   258 11.1    0.004    0.004    0.219    0.256
 ao_to_mo_and_store_B_E_Ex_gw_1       6  7.0    0.080    0.097    0.213    0.244
 dbt_split_copyback                   4 10.0    0.169    0.183    0.217    0.237
 dbt_tas_reserve_blocks_index        60 13.0    0.005    0.006    0.206    0.228
 truncate_BSE_matrices                1  8.0    0.000    0.000    0.164    0.227
 dbt_nd_mp_comm                       8 11.0    0.000    0.000    0.188    0.218
 array2fm_waitall                     4  8.0    0.000    0.003    0.017    0.208
 rs_scatter_matrices                 77  7.0    0.001    0.004    0.201    0.208
 fm_general_add_bse_6_buffer_to       1 10.0    0.151    0.204    0.151    0.204
 fm_general_add_bse_3_alloc_buf       5 11.2    0.146    0.203    0.146    0.203
 dbt_reserve_blocks_index            36 10.8    0.006    0.007    0.183    0.201
 mp_alltoall_i                       40 13.9    0.116    0.201    0.116    0.201
 mp_alltoall_i22                    380  9.2    0.160    0.201    0.160    0.201
 ao_to_mo_and_store_B_E_Ex_bse_       6  7.0    0.064    0.078    0.176    0.200
 postprocess_bse                      1  9.0    0.000    0.000    0.154    0.200
 yz_to_xz                           154 14.0    0.014    0.016    0.183    0.194
 dbt_reserve_blocks_index_array      28 10.6    0.000    0.000    0.164    0.182
 dbcsr_iterator_stop             118535  8.7    0.101    0.149    0.122    0.176
 pw_zero                            458 10.3    0.149    0.171    0.149    0.171
 mp_alltoall_i11v                   914  9.3    0.167    0.168    0.167    0.168
 dbt_distribution_new_expert         76 10.1    0.001    0.002    0.130    0.167
 -------------------------------------------------------------------------------

 The number of warnings for this run is : 2
 
 -------------------------------------------------------------------------------
  **** **** ******  **  PROGRAM ENDED AT                 2025-03-11 10:04:30.360
 ***** ** ***  *** **   PROGRAM RAN ON                              i06r01c05s01
 **    ****   ******    PROGRAM RAN BY                                   di38fab
 ***** **    ** ** **   PROGRAM PROCESS ID                               2478443
  **** **  *******  **  PROGRAM STOPPED IN /hppfs/scratch/04/di38fab/05_MOL/aUKB
                                           qsEOTmq69kFe5R_nOg/5k_set_final_qzvp/
                                           BUYKOW/aug-cc-pVQZ
