SIRIUS 7.6.1, git hash: https://api.github.com/repos/electronic-structure/SIRIUS/git/ref/tags/v7.6.1
 DBCSR| CPU Multiplication driver                                           XSMM (U)
 DBCSR| Multrec recursion limit                                              512 (U)
 DBCSR| Multiplication stack size                                           1000 (D)
 DBCSR| Maximum elements for images                                    UNLIMITED (U)
 DBCSR| Multiplicative factor virtual images                                   1 (U)
 DBCSR| Use multiplication densification                                       T (D)
 DBCSR| Multiplication size stacks                                             3 (U)
 DBCSR| Use memory pool for CPU allocation                                     F (U)
 DBCSR| Number of 3D layers                                               SINGLE (U)
 DBCSR| Use MPI memory allocation                                              F (U)
 DBCSR| Use RMA algorithm                                                      F (U)
 DBCSR| Use Communication thread                                               T (U)
 DBCSR| Communication thread load                                             60 (D)
 DBCSR| MPI: My process id                                                     0
 DBCSR| MPI: Number of processes                                              80
 DBCSR| OMP: Current number of threads                                         8
 DBCSR| OMP: Max number of threads                                             8
 DBCSR| Split modifier for TAS multiplication algorithm                  1.0E+00 (U)


  **** **** ******  **  PROGRAM STARTED AT               2025-05-05 17:17:48.295
 ***** ** ***  *** **   PROGRAM STARTED ON                              n2cn0335
 **    ****   ******    PROGRAM STARTED BY                              metdyn02
 ***** **    ** ** **   PROGRAM PROCESS ID                                716210
  **** **  *******  **  PROGRAM STARTED IN /scratch/hpc-prf-metdyn/metdyn02_Remi
                                           /10_MOL/05_MOL/aUKBqsEOTmq69kFe5R_nOg
                                           /5k_set_final_qzvp/VUZHAA/DZVP/GW+BSE
                                           /RILIM

 CP2K| version string:                 CP2K version 2025.1 (Development Version)
 CP2K| source code revision number:                                  git:4803c37
 CP2K| cp2kflags: omp libint fftw3 libxc libgrpp elpa parallel scalapack mpi_f08
 CP2K|             cosma xsmm plumed2 spglib sirius libvori libbqb libvdwxc hdf5
 CP2K| is freely available from                            https://www.cp2k.org/
 CP2K| Program compiled at                         Thu Apr 10 12:05:05 CEST 2025
 CP2K| Program compiled on                                              n2login1
 CP2K| Program compiled for                                                local
 CP2K| Data directory path    /opt/software/pc2/EB-SW/software/CP2K/2024.1-foss-
 CP2K| Input file name                                                    GW.inp

 GLOBAL| Force Environment number                                              1
 GLOBAL| Basis set file name            /scratch/hpc-prf-metdyn/metdyn02_Remi/BA
 GLOBAL| Potential file name            /pc2/groups/hpc-prf-metdyn/metdyn02_Remi
 GLOBAL| MM Potential file name                                     MM_POTENTIAL
 GLOBAL| Coordinate file name                                      __STD_INPUT__
 GLOBAL| Method name                                                        CP2K
 GLOBAL| Project name                                                       MoS2
 GLOBAL| Run type                                                         ENERGY
 GLOBAL| FFT library                                                       FFTW3
 GLOBAL| Diagonalization library                                            ELPA
 GLOBAL| DGEMM library                                                      BLAS
 GLOBAL| Minimum number of eigenvectors for ELPA usage                        16
 GLOBAL| Orthonormality check for eigenvectors                          DISABLED
 GLOBAL| Matrix multiplication library                                     COSMA
 GLOBAL| All-to-all communication in single precision                          F
 GLOBAL| FFTs using library dependent lengths                                  F
 GLOBAL| Grid backend                                                       AUTO
 GLOBAL| Global print level                                               MEDIUM
 GLOBAL| MPI I/O enabled                                                       T
 GLOBAL| Total number of message passing processes                            80
 GLOBAL| Number of threads for this process                                    8
 GLOBAL| This output is from process                                           0
 GLOBAL| OpenMP stack size per thread (OMP_STACKSIZE)                    default
 GLOBAL| CPU model name                          AMD EPYC 7763 64-Core Processor
 GLOBAL| CPUID                                                              1002

 MEMORY| system memory details [Kb]
 MEMORY|                        rank 0           min           max       average
 MEMORY| MemTotal            263899264     263899260     263899264     263899262
 MEMORY| MemFree             252876600     248058816     253758748     250512724
 MEMORY| Buffers                 79168         42476        222724        146705
 MEMORY| Cached                5633616       5131932       8690044       6257511
 MEMORY| Slab                  1895380       1509748       2618732       2185475
 MEMORY| SReclaimable           456628        251916        507660        379041
 MEMORY| MemLikelyFree       259046012     256346804     259290208     257295982


 *** Fundamental physical constants (SI units) ***

 *** Literature: B. J. Mohr and B. N. Taylor,
 ***             CODATA recommended values of the fundamental physical
 ***             constants: 2006, Web Version 5.1
 ***             http://physics.nist.gov/constants

 Speed of light in vacuum [m/s]                             2.99792458000000E+08
 Magnetic constant or permeability of vacuum [N/A**2]       1.25663706143592E-06
 Electric constant or permittivity of vacuum [F/m]          8.85418781762039E-12
 Planck constant (h) [J*s]                                  6.62606896000000E-34
 Planck constant (h-bar) [J*s]                              1.05457162825177E-34
 Elementary charge [C]                                      1.60217648700000E-19
 Electron mass [kg]                                         9.10938215000000E-31
 Electron g factor [ ]                                     -2.00231930436220E+00
 Proton mass [kg]                                           1.67262163700000E-27
 Fine-structure constant                                    7.29735253760000E-03
 Rydberg constant [1/m]                                     1.09737315685270E+07
 Avogadro constant [1/mol]                                  6.02214179000000E+23
 Boltzmann constant [J/K]                                   1.38065040000000E-23
 Atomic mass unit [kg]                                      1.66053878200000E-27
 Bohr radius [m]                                            5.29177208590000E-11

 *** Conversion factors ***

 [u] -> [a.u.]                                              1.82288848426455E+03
 [Angstrom] -> [Bohr] = [a.u.]                              1.88972613288564E+00
 [a.u.] = [Bohr] -> [Angstrom]                              5.29177208590000E-01
 [a.u.] -> [s]                                              2.41888432650478E-17
 [a.u.] -> [fs]                                             2.41888432650478E-02
 [a.u.] -> [J]                                              4.35974393937059E-18
 [a.u.] -> [N]                                              8.23872205491840E-08
 [a.u.] -> [K]                                              3.15774647902944E+05
 [a.u.] -> [kJ/mol]                                         2.62549961709828E+03
 [a.u.] -> [kcal/mol]                                       6.27509468713739E+02
 [a.u.] -> [Pa]                                             2.94210107994716E+13
 [a.u.] -> [bar]                                            2.94210107994716E+08
 [a.u.] -> [atm]                                            2.90362800883016E+08
 [a.u.] -> [eV]                                             2.72113838565563E+01
 [a.u.] -> [Hz]                                             6.57968392072181E+15
 [a.u.] -> [1/cm] (wave numbers)                            2.19474631370540E+05
 [a.u./Bohr**2] -> [1/cm]                                   5.14048714338585E+03
 

 CELL_TOP| Volume [angstrom^3]:                                     27000.000000
 CELL_TOP| Vector a [angstrom    30.000     0.000     0.000   |a| =    30.000000
 CELL_TOP| Vector b [angstrom     0.000    30.000     0.000   |b| =    30.000000
 CELL_TOP| Vector c [angstrom     0.000     0.000    30.000   |c| =    30.000000
 CELL_TOP| Angle (b,c), alpha [degree]:                                90.000000
 CELL_TOP| Angle (a,c), beta  [degree]:                                90.000000
 CELL_TOP| Angle (a,b), gamma [degree]:                                90.000000
 CELL_TOP| Numerically orthorhombic:                                         YES
 CELL_TOP| Periodicity                                                      NONE

 GENERATE|  Preliminary Number of Bonds generated:                             0
 GENERATE|  Achieved consistency in connectivity generation.

 CELL| Volume [angstrom^3]:                                         27000.000000
 CELL| Vector a [angstrom]:      30.000     0.000     0.000   |a| =    30.000000
 CELL| Vector b [angstrom]:       0.000    30.000     0.000   |b| =    30.000000
 CELL| Vector c [angstrom]:       0.000     0.000    30.000   |c| =    30.000000
 CELL| Angle (b,c), alpha [degree]:                                    90.000000
 CELL| Angle (a,c), beta  [degree]:                                    90.000000
 CELL| Angle (a,b), gamma [degree]:                                    90.000000
 CELL| Numerically orthorhombic:                                             YES
 CELL| Periodicity                                                          NONE

 CELL_REF| Volume [angstrom^3]:                                     27000.000000
 CELL_REF| Vector a [angstrom    30.000     0.000     0.000   |a| =    30.000000
 CELL_REF| Vector b [angstrom     0.000    30.000     0.000   |b| =    30.000000
 CELL_REF| Vector c [angstrom     0.000     0.000    30.000   |c| =    30.000000
 CELL_REF| Angle (b,c), alpha [degree]:                                90.000000
 CELL_REF| Angle (a,c), beta  [degree]:                                90.000000
 CELL_REF| Angle (a,b), gamma [degree]:                                90.000000
 CELL_REF| Numerically orthorhombic:                                         YES
 CELL_REF| Periodicity                                                      NONE

 *******************************************************************************
 *******************************************************************************
 **                                                                           **
 **     #####                         ##              ##                      **
 **    ##   ##            ##          ##              ##                      **
 **   ##     ##                       ##            ######                    **
 **   ##     ##  ##   ##  ##   #####  ##  ##   ####   ##    #####    #####    **
 **   ##     ##  ##   ##  ##  ##      ## ##   ##      ##   ##   ##  ##   ##   **
 **   ##  ## ##  ##   ##  ##  ##      ####     ###    ##   ######   ######    **
 **    ##  ###   ##   ##  ##  ##      ## ##      ##   ##   ##       ##        **
 **     #######   #####   ##   #####  ##  ##  ####    ##    #####   ##        **
 **           ##                                                    ##        **
 **                                                                           **
 **                                                ... make the atoms dance   **
 **                                                                           **
 **            Copyright (C) by CP2K developers group (2000-2025)             **
 **                      J. Chem. Phys. 152, 194103 (2020)                    **
 **                                                                           **
 *******************************************************************************

 DFT| Spin restricted Kohn-Sham (RKS) calculation                            RKS
 DFT| Multiplicity                                                             1
 DFT| Number of spin states                                                    1
 DFT| Charge                                                                   0
 DFT| Self-interaction correction (SIC)                                       NO
 DFT| Cutoffs: density                                              1.000000E-10
 DFT|          gradient                                             1.000000E-10
 DFT|          tau                                                  1.000000E-10
 DFT|          cutoff_smoothing_range                               0.000000E+00
 DFT| XC density smoothing                                                  NONE
 DFT| XC derivatives                                                          PW

 FUNCTIONAL| PBE:
 FUNCTIONAL| J.P.Perdew, K.Burke, M.Ernzerhof, Phys. Rev. Letter, vol. 77, n 18,
 FUNCTIONAL|  pp. 3865-3868, (1996)sx=0.750sc=1.000{spin unpolarized}           


 QS| Method:                                                                GAPW
 QS| Density plane wave grid type                        NON-SPHERICAL FULLSPACE
 QS| Number of grid levels:                                                    4
 QS| Density cutoff [a.u.]:                                                250.0
 QS| Multi grid cutoff [a.u.]: 1) grid level                               250.0
 QS|                           2) grid level                                83.3
 QS|                           3) grid level                                27.8
 QS|                           4) grid level                                 9.3
 QS| Grid level progression factor:                                          3.0
 QS| Relative density cutoff [a.u.]:                                        50.0
 QS| Interaction thresholds: eps_pgf_orb:                                1.0E-12
 QS|                         eps_filter_matrix:                          0.0E+00
 QS|                         eps_core_charge:                            1.0E-14
 QS|                         eps_rho_gspace:                             1.0E-12
 QS|                         eps_rho_rspace:                             1.0E-12
 QS|                         eps_gvg_rspace:                             1.0E-06
 QS|                         eps_ppl:                                    1.0E-02
 QS|                         eps_ppnl:                                   1.0E-08
 QS| GAPW|      One center basis from orbital basis primitives
 QS| GAPW|                   eps_fit:                                    1.0E-04
 QS| GAPW|                   eps_iso:                                    1.0E-12
 QS| GAPW|                   eps_svd:                                    1.0E-08
 QS| GAPW|                   eps_cpc:                                    1.0E-12
 QS| GAPW|   atom-r-grid: quadrature:                                     GC_LOG
 QS| GAPW|      atom-s-grid:  max l :                                          6
 QS| GAPW|      max_l_rho0 :                                                   2


 ATOMIC KIND INFORMATION

  1. Atomic kind: O                                     Number of atoms:       2

     Orbital Basis Set                                        aug-DZVP-MOLOPT-ae

       Number of orbital shell sets:                                           2
       Number of orbital shells:                                              10
       Number of primitive Cartesian functions:                               12
       Number of Cartesian basis functions:                                   35
       Number of spherical basis functions:                                   30
       Norm type:                                                              2

       Normalised Cartesian orbitals:

                        Set   Shell   Orbital            Exponent    Coefficient

                          1       1    2s                0.090000       0.120905
                                                         0.191936      -0.019521
                                                         0.750068       0.059582
                                                         2.907977       0.000000
                                                        16.368686       0.000000

                          1       2    3px               0.090000       0.000000
                                                         0.191936       0.023686
                                                         0.750068       0.626550
                                                         2.907977       2.082711
                                                        16.368686       3.596544
                          1       2    3py               0.090000       0.000000
                                                         0.191936       0.023686
                                                         0.750068       0.626550
                                                         2.907977       2.082711
                                                        16.368686       3.596544
                          1       2    3pz               0.090000       0.000000
                                                         0.191936       0.023686
                                                         0.750068       0.626550
                                                         2.907977       2.082711
                                                        16.368686       3.596544

                          1       3    4px               0.090000       0.000000
                                                         0.191936       0.196557
                                                         0.750068      -0.157257
                                                         2.907977      -0.566756
                                                        16.368686      -1.323495
                          1       3    4py               0.090000       0.000000
                                                         0.191936       0.196557
                                                         0.750068      -0.157257
                                                         2.907977      -0.566756
                                                        16.368686      -1.323495
                          1       3    4pz               0.090000       0.000000
                                                         0.191936       0.196557
                                                         0.750068      -0.157257
                                                         2.907977      -0.566756
                                                        16.368686      -1.323495

                          1       4    5px               0.090000       0.020606
                                                         0.191936       0.124186
                                                         0.750068       0.098287
                                                         2.907977       0.000000
                                                        16.368686       0.000000
                          1       4    5py               0.090000       0.020606
                                                         0.191936       0.124186
                                                         0.750068       0.098287
                                                         2.907977       0.000000
                                                        16.368686       0.000000
                          1       4    5pz               0.090000       0.020606
                                                         0.191936       0.124186
                                                         0.750068       0.098287
                                                         2.907977       0.000000
                                                        16.368686       0.000000

                          1       5    4dx2              0.090000       0.000000
                                                         0.191936       0.030414
                                                         0.750068       0.724129
                                                         2.907977       1.586204
                                                        16.368686       1.487256
                          1       5    4dxy              0.090000       0.000000
                                                         0.191936       0.052678
                                                         0.750068       1.254227
                                                         2.907977       2.747386
                                                        16.368686       2.576002
                          1       5    4dxz              0.090000       0.000000
                                                         0.191936       0.052678
                                                         0.750068       1.254227
                                                         2.907977       2.747386
                                                        16.368686       2.576002
                          1       5    4dy2              0.090000       0.000000
                                                         0.191936       0.030414
                                                         0.750068       0.724129
                                                         2.907977       1.586204
                                                        16.368686       1.487256
                          1       5    4dyz              0.090000       0.000000
                                                         0.191936       0.052678
                                                         0.750068       1.254227
                                                         2.907977       2.747386
                                                        16.368686       2.576002
                          1       5    4dz2              0.090000       0.000000
                                                         0.191936       0.030414
                                                         0.750068       0.724129
                                                         2.907977       1.586204
                                                        16.368686       1.487256

                          1       6    5dx2              0.090000      -0.010181
                                                         0.191936       0.018957
                                                         0.750068       0.933882
                                                         2.907977       0.008471
                                                        16.368686       0.000000
                          1       6    5dxy              0.090000      -0.017634
                                                         0.191936       0.032834
                                                         0.750068       1.617531
                                                         2.907977       0.014671
                                                        16.368686       0.000000
                          1       6    5dxz              0.090000      -0.017634
                                                         0.191936       0.032834
                                                         0.750068       1.617531
                                                         2.907977       0.014671
                                                        16.368686       0.000000
                          1       6    5dy2              0.090000      -0.010181
                                                         0.191936       0.018957
                                                         0.750068       0.933882
                                                         2.907977       0.008471
                                                        16.368686       0.000000
                          1       6    5dyz              0.090000      -0.017634
                                                         0.191936       0.032834
                                                         0.750068       1.617531
                                                         2.907977       0.014671
                                                        16.368686       0.000000
                          1       6    5dz2              0.090000      -0.010181
                                                         0.191936       0.018957
                                                         0.750068       0.933882
                                                         2.907977       0.008471
                                                        16.368686       0.000000

                          1       7    5fx3              0.090000       0.003073
                                                         0.191936       0.017866
                                                         0.750068       0.208981
                                                         2.907977      -1.809714
                                                        16.368686       0.000000
                          1       7    5fx2y             0.090000       0.006871
                                                         0.191936       0.039950
                                                         0.750068       0.467295
                                                         2.907977      -4.046643
                                                        16.368686       0.000000
                          1       7    5fx2z             0.090000       0.006871
                                                         0.191936       0.039950
                                                         0.750068       0.467295
                                                         2.907977      -4.046643
                                                        16.368686       0.000000
                          1       7    5fxy2             0.090000       0.006871
                                                         0.191936       0.039950
                                                         0.750068       0.467295
                                                         2.907977      -4.046643
                                                        16.368686       0.000000
                          1       7    5fxyz             0.090000       0.011901
                                                         0.191936       0.069196
                                                         0.750068       0.809378
                                                         2.907977      -7.008992
                                                        16.368686       0.000000
                          1       7    5fxz2             0.090000       0.006871
                                                         0.191936       0.039950
                                                         0.750068       0.467295
                                                         2.907977      -4.046643
                                                        16.368686       0.000000
                          1       7    5fy3              0.090000       0.003073
                                                         0.191936       0.017866
                                                         0.750068       0.208981
                                                         2.907977      -1.809714
                                                        16.368686       0.000000
                          1       7    5fy2z             0.090000       0.006871
                                                         0.191936       0.039950
                                                         0.750068       0.467295
                                                         2.907977      -4.046643
                                                        16.368686       0.000000
                          1       7    5fyz2             0.090000       0.006871
                                                         0.191936       0.039950
                                                         0.750068       0.467295
                                                         2.907977      -4.046643
                                                        16.368686       0.000000
                          1       7    5fz3              0.090000       0.003073
                                                         0.191936       0.017866
                                                         0.750068       0.208981
                                                         2.907977      -1.809714
                                                        16.368686       0.000000

                          2       1    1s                0.293338      -0.001581
                                                         0.941883       0.076823
                                                         5.946538      -1.128731
                                                        19.692604      -3.542509
                                                        76.928143      -3.538410
                                                       340.903325      -2.616043
                                                      2266.118827      -1.088852

                          2       2    2s                0.293338       0.124568
                                                         0.941883       0.386056
                                                         5.946538       0.132815
                                                        19.692604       0.350657
                                                        76.928143       1.294240
                                                       340.903325      -0.343055
                                                      2266.118827       0.730749

                          2       3    3s                0.293338       0.411906
                                                         0.941883      -0.735854
                                                         5.946538      -0.324434
                                                        19.692604      -0.580898
                                                        76.928143      -3.484318
                                                       340.903325       2.878168
                                                      2266.118827      -6.417666

     RI Auxiliary Basis Set             RI_aug-DZVP-MOLOPT-ae_N_RI_105_s_p_d_f_g

       Number of orbital shell sets:                                          25
       Number of orbital shells:                                              25
       Number of primitive Cartesian functions:                               25
       Number of Cartesian basis functions:                                  140
       Number of spherical basis functions:                                  105
       Norm type:                                                              2

       Normalised Cartesian orbitals:

                        Set   Shell   Orbital            Exponent    Coefficient

                          1       1    1s                0.195905       0.209867

                          2       1    8px               0.282486       0.293552
                          2       1    8py               0.282486       0.293552
                          2       1    8pz               0.282486       0.293552

                          3       1   19fx3              0.345874       0.135057
                          3       1   19fx2y             0.345874       0.301998
                          3       1   19fx2z             0.345874       0.301998
                          3       1   19fxy2             0.345874       0.301998
                          3       1   19fxyz             0.345874       0.523075
                          3       1   19fxz2             0.345874       0.301998
                          3       1   19fy3              0.345874       0.135057
                          3       1   19fy2z             0.345874       0.301998
                          3       1   19fyz2             0.345874       0.301998
                          3       1   19fz3              0.345874       0.135057

                          4       1   14dx2              0.352833       0.265862
                          4       1   14dxy              0.352833       0.460486
                          4       1   14dxz              0.352833       0.460486
                          4       1   14dy2              0.352833       0.265862
                          4       1   14dyz              0.352833       0.460486
                          4       1   14dz2              0.352833       0.265862

                          5       1    2s                0.406984       0.363156

                          6       1   23gx4              0.474501       0.143248
                          6       1   23gx3y             0.474501       0.378998
                          6       1   23gx3z             0.474501       0.378998
                          6       1   23gx2y2            0.474501       0.489285
                          6       1   23gx2yz            0.474501       0.847466
                          6       1   23gx2z2            0.474501       0.489285
                          6       1   23gxy3             0.474501       0.378998
                          6       1   23gxy2z            0.474501       0.847466
                          6       1   23gxyz2            0.474501       0.847466
                          6       1   23gxz3             0.474501       0.378998
                          6       1   23gy4              0.474501       0.143248
                          6       1   23gy3z             0.474501       0.378998
                          6       1   23gy2z2            0.474501       0.489285
                          6       1   23gyz3             0.474501       0.378998
                          6       1   23gz4              0.474501       0.143248

                          7       1   15dx2              0.644859       0.763787
                          7       1   15dxy              0.644859       1.322918
                          7       1   15dxz              0.644859       1.322918
                          7       1   15dy2              0.644859       0.763787
                          7       1   15dyz              0.644859       1.322918
                          7       1   15dz2              0.644859       0.763787

                          8       1    9px               0.756320       1.005362
                          8       1    9py               0.756320       1.005362
                          8       1    9pz               0.756320       1.005362

                          9       1   20fx3              0.872007       1.081744
                          9       1   20fx2y             0.872007       2.418854
                          9       1   20fx2z             0.872007       2.418854
                          9       1   20fxy2             0.872007       2.418854
                          9       1   20fxyz             0.872007       4.189578
                          9       1   20fxz2             0.872007       2.418854
                          9       1   20fy3              0.872007       1.081744
                          9       1   20fy2z             0.872007       2.418854
                          9       1   20fyz2             0.872007       2.418854
                          9       1   20fz3              0.872007       1.081744

                         10       1    3s                1.314883       0.875136

                         11       1   16dx2              1.471292       3.235062
                         11       1   16dxy              1.471292       5.603291
                         11       1   16dxz              1.471292       5.603291
                         11       1   16dy2              1.471292       3.235062
                         11       1   16dyz              1.471292       5.603291
                         11       1   16dz2              1.471292       3.235062

                         12       1   24gx4              1.481870       3.282186
                         12       1   24gx3y             1.481870       8.683848
                         12       1   24gx3z             1.481870       8.683848
                         12       1   24gx2y2            1.481870      11.210800
                         12       1   24gx2yz            1.481870      19.417675
                         12       1   24gx2z2            1.481870      11.210800
                         12       1   24gxy3             1.481870       8.683848
                         12       1   24gxy2z            1.481870      19.417675
                         12       1   24gxyz2            1.481870      19.417675
                         12       1   24gxz3             1.481870       8.683848
                         12       1   24gy4              1.481870       3.282186
                         12       1   24gy3z             1.481870       8.683848
                         12       1   24gy2z2            1.481870      11.210800
                         12       1   24gyz3             1.481870       8.683848
                         12       1   24gz4              1.481870       3.282186

                         13       1   10px               1.845532       3.066142
                         13       1   10py               1.845532       3.066142
                         13       1   10pz               1.845532       3.066142

                         14       1   21fx3              1.896547       6.214022
                         14       1   21fx2y             1.896547      13.894977
                         14       1   21fx2z             1.896547      13.894977
                         14       1   21fxy2             1.896547      13.894977
                         14       1   21fxyz             1.896547      24.066805
                         14       1   21fxz2             1.896547      13.894977
                         14       1   21fy3              1.896547       6.214022
                         14       1   21fy2z             1.896547      13.894977
                         14       1   21fyz2             1.896547      13.894977
                         14       1   21fz3              1.896547       6.214022

                         15       1   25gx4              3.188142      26.987590
                         15       1   25gx3y             3.188142      71.402451
                         15       1   25gx3z             3.188142      71.402451
                         15       1   25gx2y2            3.188142      92.180168
                         15       1   25gx2yz            3.188142     159.660734
                         15       1   25gx2z2            3.188142      92.180168
                         15       1   25gxy3             3.188142      71.402451
                         15       1   25gxy2z            3.188142     159.660734
                         15       1   25gxyz2            3.188142     159.660734
                         15       1   25gxz3             3.188142      71.402451
                         15       1   25gy4              3.188142      26.987590
                         15       1   25gy3z             3.188142      71.402451
                         15       1   25gy2z2            3.188142      92.180168
                         15       1   25gyz3             3.188142      71.402451
                         15       1   25gz4              3.188142      26.987590

                         16       1   17dx2              3.323344      13.463754
                         16       1   17dxy              3.323344      23.319907
                         16       1   17dxz              3.323344      23.319907
                         16       1   17dy2              3.323344      13.463754
                         16       1   17dyz              3.323344      23.319907
                         16       1   17dz2              3.323344      13.463754

                         17       1    4s                4.431255       2.176733

                         18       1   22fx3              4.942089      53.610918
                         18       1   22fx2y             4.942089     119.877658
                         18       1   22fx2z             4.942089     119.877658
                         18       1   22fxy2             4.942089     119.877658
                         18       1   22fxyz             4.942089     207.634194
                         18       1   22fxz2             4.942089     119.877658
                         18       1   22fy3              4.942089      53.610918
                         18       1   22fy2z             4.942089     119.877658
                         18       1   22fyz2             4.942089     119.877658
                         18       1   22fz3              4.942089      53.610918

                         19       1   11px               5.173565      11.121862
                         19       1   11py               5.173565      11.121862
                         19       1   11pz               5.173565      11.121862

                         20       1   18dx2              7.739965      59.115682
                         20       1   18dxy              7.739965     102.391365
                         20       1   18dxz              7.739965     102.391365
                         20       1   18dy2              7.739965      59.115682
                         20       1   18dyz              7.739965     102.391365
                         20       1   18dz2              7.739965      59.115682

                         21       1   12px              12.702310      34.181686
                         21       1   12py              12.702310      34.181686
                         21       1   12pz              12.702310      34.181686

                         22       1    5s               15.534269       5.576712

                         23       1   13px              30.897327     103.834394
                         23       1   13py              30.897327     103.834394
                         23       1   13pz              30.897327     103.834394

                         24       1    6s               51.005300      13.602589

                         25       1    7s              159.093541      31.926367

       Atomic covalent radius [Angstrom]:                                  0.730

       Atomic van der Waals radius [Angstrom]:                             1.520

     The atoms of this atomic kind are PAW atoms (GAPW):
       Hard Gaussian function radius:                                      1.512
       Rho0 radius:                                                        1.512
       Maximum GTO radius used for PAW projector construction:            24.566

     GAPW Soft Basis Set                                 aug-DZVP-MOLOPT-ae_soft

       Number of orbital shell sets:                                           2
       Number of orbital shells:                                              10
       Number of primitive Cartesian functions:                                6
       Number of Cartesian basis functions:                                   35
       Number of spherical basis functions:                                   30
       Norm type:                                                              2

       Normalised Cartesian orbitals:

                        Set   Shell   Orbital            Exponent    Coefficient

                          1       1    2s                0.090000       0.120905
                                                         0.191936      -0.019521
                                                         0.750068       0.059582
                                                         2.907977       0.000000

                          1       2    3px               0.090000       0.000000
                                                         0.191936       0.023686
                                                         0.750068       0.626550
                                                         2.907977       2.082711
                          1       2    3py               0.090000       0.000000
                                                         0.191936       0.023686
                                                         0.750068       0.626550
                                                         2.907977       2.082711
                          1       2    3pz               0.090000       0.000000
                                                         0.191936       0.023686
                                                         0.750068       0.626550
                                                         2.907977       2.082711

                          1       3    4px               0.090000       0.000000
                                                         0.191936       0.196557
                                                         0.750068      -0.157257
                                                         2.907977      -0.566756
                          1       3    4py               0.090000       0.000000
                                                         0.191936       0.196557
                                                         0.750068      -0.157257
                                                         2.907977      -0.566756
                          1       3    4pz               0.090000       0.000000
                                                         0.191936       0.196557
                                                         0.750068      -0.157257
                                                         2.907977      -0.566756

                          1       4    5px               0.090000       0.020606
                                                         0.191936       0.124186
                                                         0.750068       0.098287
                                                         2.907977       0.000000
                          1       4    5py               0.090000       0.020606
                                                         0.191936       0.124186
                                                         0.750068       0.098287
                                                         2.907977       0.000000
                          1       4    5pz               0.090000       0.020606
                                                         0.191936       0.124186
                                                         0.750068       0.098287
                                                         2.907977       0.000000

                          1       5    4dx2              0.090000       0.000000
                                                         0.191936       0.030414
                                                         0.750068       0.724129
                                                         2.907977       1.586204
                          1       5    4dxy              0.090000       0.000000
                                                         0.191936       0.052678
                                                         0.750068       1.254227
                                                         2.907977       2.747386
                          1       5    4dxz              0.090000       0.000000
                                                         0.191936       0.052678
                                                         0.750068       1.254227
                                                         2.907977       2.747386
                          1       5    4dy2              0.090000       0.000000
                                                         0.191936       0.030414
                                                         0.750068       0.724129
                                                         2.907977       1.586204
                          1       5    4dyz              0.090000       0.000000
                                                         0.191936       0.052678
                                                         0.750068       1.254227
                                                         2.907977       2.747386
                          1       5    4dz2              0.090000       0.000000
                                                         0.191936       0.030414
                                                         0.750068       0.724129
                                                         2.907977       1.586204

                          1       6    5dx2              0.090000      -0.010181
                                                         0.191936       0.018957
                                                         0.750068       0.933882
                                                         2.907977       0.008471
                          1       6    5dxy              0.090000      -0.017634
                                                         0.191936       0.032834
                                                         0.750068       1.617531
                                                         2.907977       0.014671
                          1       6    5dxz              0.090000      -0.017634
                                                         0.191936       0.032834
                                                         0.750068       1.617531
                                                         2.907977       0.014671
                          1       6    5dy2              0.090000      -0.010181
                                                         0.191936       0.018957
                                                         0.750068       0.933882
                                                         2.907977       0.008471
                          1       6    5dyz              0.090000      -0.017634
                                                         0.191936       0.032834
                                                         0.750068       1.617531
                                                         2.907977       0.014671
                          1       6    5dz2              0.090000      -0.010181
                                                         0.191936       0.018957
                                                         0.750068       0.933882
                                                         2.907977       0.008471

                          1       7    5fx3              0.090000       0.003073
                                                         0.191936       0.017866
                                                         0.750068       0.208981
                                                         2.907977      -1.809714
                          1       7    5fx2y             0.090000       0.006871
                                                         0.191936       0.039950
                                                         0.750068       0.467295
                                                         2.907977      -4.046643
                          1       7    5fx2z             0.090000       0.006871
                                                         0.191936       0.039950
                                                         0.750068       0.467295
                                                         2.907977      -4.046643
                          1       7    5fxy2             0.090000       0.006871
                                                         0.191936       0.039950
                                                         0.750068       0.467295
                                                         2.907977      -4.046643
                          1       7    5fxyz             0.090000       0.011901
                                                         0.191936       0.069196
                                                         0.750068       0.809378
                                                         2.907977      -7.008992
                          1       7    5fxz2             0.090000       0.006871
                                                         0.191936       0.039950
                                                         0.750068       0.467295
                                                         2.907977      -4.046643
                          1       7    5fy3              0.090000       0.003073
                                                         0.191936       0.017866
                                                         0.750068       0.208981
                                                         2.907977      -1.809714
                          1       7    5fy2z             0.090000       0.006871
                                                         0.191936       0.039950
                                                         0.750068       0.467295
                                                         2.907977      -4.046643
                          1       7    5fyz2             0.090000       0.006871
                                                         0.191936       0.039950
                                                         0.750068       0.467295
                                                         2.907977      -4.046643
                          1       7    5fz3              0.090000       0.003073
                                                         0.191936       0.017866
                                                         0.750068       0.208981
                                                         2.907977      -1.809714

                          2       1    1s                0.293338      -0.001581
                                                         0.941883       0.076823

                          2       2    2s                0.293338       0.124568
                                                         0.941883       0.386056

                          2       3    3s                0.293338       0.411906
                                                         0.941883      -0.735854

     AE Potential information for                                            ALL

       Description:                                       All-electron potential
                                          Krack, Parrinello, PCCP 2, 2105 (2000)

       Gaussian exponent of the core charge distribution:               8.154466
       Electronic configuration (s p d ...):                           4   4   0

  2. Atomic kind: H                                     Number of atoms:       8

     Orbital Basis Set                                        aug-DZVP-MOLOPT-ae

       Number of orbital shell sets:                                           1
       Number of orbital shells:                                               5
       Number of primitive Cartesian functions:                                5
       Number of Cartesian basis functions:                                    9
       Number of spherical basis functions:                                    9
       Norm type:                                                              2

       Normalised Cartesian orbitals:

                        Set   Shell   Orbital            Exponent    Coefficient

                          1       1    2s                0.035000       0.000000
                                                         0.111920       0.009149
                                                         0.374948       0.205449
                                                         1.446686       0.373852
                                                        12.248855       0.310040

                          1       2    3s                0.035000       0.000000
                                                         0.111920       0.143650
                                                         0.374948       0.007287
                                                         1.446686      -0.188851
                                                        12.248855      -0.144753

                          1       3    4s                0.035000       0.090463
                                                         0.111920      -0.203934
                                                         0.374948      -0.000376
                                                         1.446686      -0.000051
                                                        12.248855       0.000000

                          1       4    3px               0.035000       0.000000
                                                         0.111920       0.007225
                                                         0.374948       0.280770
                                                         1.446686       0.896497
                                                        12.248855      -0.764411
                          1       4    3py               0.035000       0.000000
                                                         0.111920       0.007225
                                                         0.374948       0.280770
                                                         1.446686       0.896497
                                                        12.248855      -0.764411
                          1       4    3pz               0.035000       0.000000
                                                         0.111920       0.007225
                                                         0.374948       0.280770
                                                         1.446686       0.896497
                                                        12.248855      -0.764411

                          1       5    4px               0.035000       0.011331
                                                         0.111920       0.048737
                                                         0.374948       0.028490
                                                         1.446686       0.035587
                                                        12.248855       0.000000
                          1       5    4py               0.035000       0.011331
                                                         0.111920       0.048737
                                                         0.374948       0.028490
                                                         1.446686       0.035587
                                                        12.248855       0.000000
                          1       5    4pz               0.035000       0.011331
                                                         0.111920       0.048737
                                                         0.374948       0.028490
                                                         1.446686       0.035587
                                                        12.248855       0.000000

     RI Auxiliary Basis Set             RI_aug-DZVP-MOLOPT-ae_N_RI_047_s_p_d_f_g

       Number of orbital shell sets:                                          17
       Number of orbital shells:                                              17
       Number of primitive Cartesian functions:                               17
       Number of Cartesian basis functions:                                   53
       Number of spherical basis functions:                                   47
       Norm type:                                                              2

       Normalised Cartesian orbitals:

                        Set   Shell   Orbital            Exponent    Coefficient

                          1       1    1s                0.236911       0.242019

                          2       1    8px               0.347892       0.380843
                          2       1    8py               0.347892       0.380843
                          2       1    8pz               0.347892       0.380843

                          3       1    2s                0.423897       0.374417

                          4       1    9px               0.493166       0.589089
                          4       1    9py               0.493166       0.589089
                          4       1    9pz               0.493166       0.589089

                          5       1   14dx2              0.625366       0.723843
                          5       1   14dxy              0.625366       1.253733
                          5       1   14dxz              0.625366       1.253733
                          5       1   14dy2              0.625366       0.723843
                          5       1   14dyz              0.625366       1.253733
                          5       1   14dz2              0.625366       0.723843

                          6       1   10px               0.699103       0.911206
                          6       1   10py               0.699103       0.911206
                          6       1   10pz               0.699103       0.911206

                          7       1    3s                0.758464       0.579244

                          8       1   15dx2              0.896802       1.360281
                          8       1   15dxy              0.896802       2.356075
                          8       1   15dxz              0.896802       2.356075
                          8       1   15dy2              0.896802       1.360281
                          8       1   15dyz              0.896802       2.356075
                          8       1   15dz2              0.896802       1.360281

                          9       1   11px               0.991036       1.409457
                          9       1   11py               0.991036       1.409457
                          9       1   11pz               0.991036       1.409457

                         10       1   17fx3              1.198110       2.210915
                         10       1   17fx2y             1.198110       4.943756
                         10       1   17fx2z             1.198110       4.943756
                         10       1   17fxy2             1.198110       4.943756
                         10       1   17fxyz             1.198110       8.562836
                         10       1   17fxz2             1.198110       4.943756
                         10       1   17fy3              1.198110       2.210915
                         10       1   17fy2z             1.198110       4.943756
                         10       1   17fyz2             1.198110       4.943756
                         10       1   17fz3              1.198110       2.210915

                         11       1   16dx2              1.286053       2.556305
                         11       1   16dxy              1.286053       4.427650
                         11       1   16dxz              1.286053       4.427650
                         11       1   16dy2              1.286053       2.556305
                         11       1   16dyz              1.286053       4.427650
                         11       1   16dz2              1.286053       2.556305

                         12       1    4s                1.357095       0.896123

                         13       1   12px               1.404875       2.180155
                         13       1   12py               1.404875       2.180155
                         13       1   12pz               1.404875       2.180155

                         14       1   13px               1.991527       3.372273
                         14       1   13py               1.991527       3.372273
                         14       1   13pz               1.991527       3.372273

                         15       1    5s                2.428204       1.386354

                         16       1    6s                4.344704       2.144768

                         17       1    7s                7.773833       3.318077

       Atomic covalent radius [Angstrom]:                                  0.320

       Atomic van der Waals radius [Angstrom]:                             1.090

     The atoms of this atomic kind are PAW atoms (GAPW):
       Hard Gaussian function radius:                                      1.200
       Rho0 radius:                                                        1.200
       Maximum GTO radius used for PAW projector construction:            24.566

     GAPW Soft Basis Set                                 aug-DZVP-MOLOPT-ae_soft

       Number of orbital shell sets:                                           1
       Number of orbital shells:                                               5
       Number of primitive Cartesian functions:                                4
       Number of Cartesian basis functions:                                    9
       Number of spherical basis functions:                                    9
       Norm type:                                                              2

       Normalised Cartesian orbitals:

                        Set   Shell   Orbital            Exponent    Coefficient

                          1       1    2s                0.035000       0.000000
                                                         0.111920       0.009149
                                                         0.374948       0.205449
                                                         1.446686       0.373852

                          1       2    3s                0.035000       0.000000
                                                         0.111920       0.143650
                                                         0.374948       0.007287
                                                         1.446686      -0.188851

                          1       3    4s                0.035000       0.090463
                                                         0.111920      -0.203934
                                                         0.374948      -0.000376
                                                         1.446686      -0.000051

                          1       4    3px               0.035000       0.000000
                                                         0.111920       0.007225
                                                         0.374948       0.280770
                                                         1.446686       0.896497
                          1       4    3py               0.035000       0.000000
                                                         0.111920       0.007225
                                                         0.374948       0.280770
                                                         1.446686       0.896497
                          1       4    3pz               0.035000       0.000000
                                                         0.111920       0.007225
                                                         0.374948       0.280770
                                                         1.446686       0.896497

                          1       5    4px               0.035000       0.011331
                                                         0.111920       0.048737
                                                         0.374948       0.028490
                                                         1.446686       0.035587
                          1       5    4py               0.035000       0.011331
                                                         0.111920       0.048737
                                                         0.374948       0.028490
                                                         1.446686       0.035587
                          1       5    4pz               0.035000       0.011331
                                                         0.111920       0.048737
                                                         0.374948       0.028490
                                                         1.446686       0.035587

     AE Potential information for                                            ALL

       Description:                                       All-electron potential
                                          Krack, Parrinello, PCCP 2, 2105 (2000)

       Gaussian exponent of the core charge distribution:              12.500000
       Electronic configuration (s p d ...):                           1   0   0

  3. Atomic kind: C                                     Number of atoms:       6

     Orbital Basis Set                                        aug-DZVP-MOLOPT-ae

       Number of orbital shell sets:                                           2
       Number of orbital shells:                                              10
       Number of primitive Cartesian functions:                               13
       Number of Cartesian basis functions:                                   35
       Number of spherical basis functions:                                   30
       Norm type:                                                              2

       Normalised Cartesian orbitals:

                        Set   Shell   Orbital            Exponent    Coefficient

                          1       1    2px               0.050000       0.000000
                                                         0.096935       0.005344
                                                         0.300899       0.144116
                                                         0.937529       0.673511
                                                         4.145546       1.425967
                          1       1    2py               0.050000       0.000000
                                                         0.096935       0.005344
                                                         0.300899       0.144116
                                                         0.937529       0.673511
                                                         4.145546       1.425967
                          1       1    2pz               0.050000       0.000000
                                                         0.096935       0.005344
                                                         0.300899       0.144116
                                                         0.937529       0.673511
                                                         4.145546       1.425967

                          1       2    3px               0.050000       0.000000
                                                         0.096935       0.066903
                                                         0.300899       0.082631
                                                         0.937529      -0.414500
                                                         4.145546      -0.833488
                          1       2    3py               0.050000       0.000000
                                                         0.096935       0.066903
                                                         0.300899       0.082631
                                                         0.937529      -0.414500
                                                         4.145546      -0.833488
                          1       2    3pz               0.050000       0.000000
                                                         0.096935       0.066903
                                                         0.300899       0.082631
                                                         0.937529      -0.414500
                                                         4.145546      -0.833488

                          1       3    4px               0.050000       0.052477
                                                         0.096935      -0.149600
                                                         0.300899      -0.031452
                                                         0.937529       0.106528
                                                         4.145546       0.000000
                          1       3    4py               0.050000       0.052477
                                                         0.096935      -0.149600
                                                         0.300899      -0.031452
                                                         0.937529       0.106528
                                                         4.145546       0.000000
                          1       3    4pz               0.050000       0.052477
                                                         0.096935      -0.149600
                                                         0.300899      -0.031452
                                                         0.937529       0.106528
                                                         4.145546       0.000000

                          1       4    3dx2              0.050000       0.000000
                                                         0.096935       0.001258
                                                         0.300899       0.105504
                                                         0.937529       0.830801
                                                         4.145546       0.718979
                          1       4    3dxy              0.050000       0.000000
                                                         0.096935       0.002179
                                                         0.300899       0.182739
                                                         0.937529       1.438990
                                                         4.145546       1.245309
                          1       4    3dxz              0.050000       0.000000
                                                         0.096935       0.002179
                                                         0.300899       0.182739
                                                         0.937529       1.438990
                                                         4.145546       1.245309
                          1       4    3dy2              0.050000       0.000000
                                                         0.096935       0.001258
                                                         0.300899       0.105504
                                                         0.937529       0.830801
                                                         4.145546       0.718979
                          1       4    3dyz              0.050000       0.000000
                                                         0.096935       0.002179
                                                         0.300899       0.182739
                                                         0.937529       1.438990
                                                         4.145546       1.245309
                          1       4    3dz2              0.050000       0.000000
                                                         0.096935       0.001258
                                                         0.300899       0.105504
                                                         0.937529       0.830801
                                                         4.145546       0.718979

                          1       5    4dx2              0.050000      -0.011665
                                                         0.096935       0.057456
                                                         0.300899      -0.258169
                                                         0.937529       0.000000
                                                         4.145546       0.000000
                          1       5    4dxy              0.050000      -0.020204
                                                         0.096935       0.099516
                                                         0.300899      -0.447162
                                                         0.937529       0.000000
                                                         4.145546       0.000000
                          1       5    4dxz              0.050000      -0.020204
                                                         0.096935       0.099516
                                                         0.300899      -0.447162
                                                         0.937529       0.000000
                                                         4.145546       0.000000
                          1       5    4dy2              0.050000      -0.011665
                                                         0.096935       0.057456
                                                         0.300899      -0.258169
                                                         0.937529       0.000000
                                                         4.145546       0.000000
                          1       5    4dyz              0.050000      -0.020204
                                                         0.096935       0.099516
                                                         0.300899      -0.447162
                                                         0.937529       0.000000
                                                         4.145546       0.000000
                          1       5    4dz2              0.050000      -0.011665
                                                         0.096935       0.057456
                                                         0.300899      -0.258169
                                                         0.937529       0.000000
                                                         4.145546       0.000000

                          1       6    4fx3              0.050000      -0.000180
                                                         0.096935       0.008160
                                                         0.300899       0.004002
                                                         0.937529       0.000000
                                                         4.145546       0.000000
                          1       6    4fx2y             0.050000      -0.000402
                                                         0.096935       0.018246
                                                         0.300899       0.008949
                                                         0.937529       0.000000
                                                         4.145546       0.000000
                          1       6    4fx2z             0.050000      -0.000402
                                                         0.096935       0.018246
                                                         0.300899       0.008949
                                                         0.937529       0.000000
[...]
 mp_sum_dv                        17438  9.7    2.012    2.193    2.012    2.193
 calc_mat_Q                         100  8.0    0.000    0.000    1.985    2.021
 contract_S_to_Q                    100  9.0    0.001    0.001    1.976    2.011
 gaVxcgb_GC                         150  9.0    0.128    1.938    0.128    1.938
 xc_functional_eval                 375 10.7    0.001    0.001    1.316    1.832
 pbe_lda_eval                       375 11.7    1.316    1.831    1.316    1.831
 mp2_eri_3c_integrate                 1  7.0    0.006    0.007    0.919    1.812
 integrate_set_3c                  5918  8.0    0.821    1.643    0.914    1.806
 transfer_rs2pw_90                   76  9.0    0.176    0.206    1.195    1.780
 transfer_pw2rs_30                   76 12.0    0.691    0.793    1.390    1.546
 mp_cart_create                     691  9.8    0.992    1.523    0.993    1.523
 mp_sum_dm                         4640  7.7    1.461    1.509    1.461    1.509
 dbt_pgrid_create_expert             84 10.8    0.000    0.000    0.964    1.494
 powell_optimize                 991218 11.0    1.403    1.462    1.403    1.462
 integrate_four_center_dist_KS       76 10.0    0.010    0.012    1.380    1.382
 integrate_four_center_getP          76 10.0    0.011    0.012    1.363    1.368
 qs_energies_init_hamiltonians        1  3.0    0.000    0.000    1.227    1.227
 build_core_hamiltonian_matrix        1  4.0    0.000    0.000    1.224    1.224
 overlap_condnum                      1  5.0    0.000    0.000    1.219    1.222
 arnoldi_conjugate_gradient           5  6.0    0.014    0.018    1.132    1.132
 calc_pair_dist_radii                 1 10.0    0.416    0.421    1.037    1.080
 pw_scatter_p                       830 12.1    1.041    1.072    1.041    1.072
 cp_fm_cholesky_invert              101  8.0    1.015    1.043    1.015    1.043
 transfer_rs2pw_30                   76  9.0    0.302    0.349    0.986    1.029
 transfer_pw2rs_10                   76 12.0    0.120    0.125    0.909    0.956
 transfer_pw2rs_90                   76 12.0    0.160    0.198    0.788    0.951
 pw_derive                          678 11.3    0.869    0.948    0.869    0.948
 cp2k_distribution_to_z_slices       76  9.0    0.275    0.316    0.906    0.936
 mp_sendrecv_dv                   12008 10.0    0.883    0.932    0.883    0.932
 dbt_total                            8  8.0    0.000    0.000    0.924    0.924
 calculate_dm_sparse                 75  6.0    0.000    0.001    0.675    0.870
 cp_dbcsr_plus_fm_fm_t               75  7.0    0.001    0.001    0.674    0.868
 dbcsr_multiply_generic             240  8.0    0.005    0.005    0.656    0.853
 dbt_contract                         4  9.0    0.000    0.000    0.832    0.841
 cp_fm_cholesky_decompose           102  9.0    0.767    0.823    0.767    0.823
 pw_gather_p                        757 11.8    0.762    0.821    0.762    0.821
 pw_copy                           1135 10.6    0.760    0.817    0.760    0.817
 compute_vec_Sigma_x_minus_vxc_       1  4.0    0.000    0.000    0.785    0.786
 fft_wrap_pw1pw2_90                 152 10.5    0.023    0.025    0.725    0.750
 dbcsr_sym_matrix_vector_mult      4335  7.0    0.032    0.034    0.655    0.714
 multiply_cannon                    240  9.0    0.010    0.011    0.506    0.703
 compute_Erpa_by_freq_int           100  8.0    0.001    0.001    0.694    0.696
 rs_gather_matrices                  76 10.0    0.003    0.004    0.566    0.679
 multiply_cannon_loop               240 10.0    0.006    0.006    0.478    0.674
 create_A                             1  8.0    0.004    0.006    0.654    0.663
 cp_fm_syrk                           3  7.0    0.656    0.659    0.656    0.659
 grid_integrate_task_list            76 10.0    0.160    0.638    0.160    0.638
 rs_grid_zero                       382 11.2    0.586    0.618    0.586    0.618
 create_B                             1  8.0    0.000    0.000    0.599    0.617
 fm_general_add_bse                   5 10.2    0.000    0.000    0.586    0.598
 mp_isendrecv_dv                  24016 12.0    0.155    0.582    0.155    0.582
 calculate_rho_atom_coeff            76  6.0    0.062    0.077    0.568    0.570
 mp_isend_dv                      14006 12.1    0.295    0.561    0.295    0.561
 dbt_tas_multiply                     8 11.5    0.000    0.000    0.558    0.559
 dbt_tas_total                        8 12.5    0.001    0.002    0.557    0.557
 pw_copy_to_array                   757 11.8    0.448    0.556    0.448    0.556
 pw_poisson_set                      77  8.9    0.001    0.001    0.499    0.542
 multiply_cannon_metrocomm3        1760 11.1    0.002    0.002    0.275    0.528
 self_consistency_check              75  5.0    0.000    0.000    0.255    0.500
 cp_sm_mix                           75  6.0    0.000    0.000    0.255    0.500
 mp_max_d                            77  6.9    0.254    0.500    0.254    0.500
 pw_copy_from_array                 830 12.1    0.379    0.466    0.379    0.466
 pw_integral_ab_c1d_c1d_gs           76  9.0    0.330    0.339    0.435    0.445
 copy_dbcsr_to_fm                   166  7.1    0.002    0.002    0.403    0.444
 create_integ_mat                     4  6.0    0.002    0.002    0.408    0.412
 update_ks_atom                      76  8.0    0.057    0.096    0.337    0.412
 array2fm                             4  7.0    0.000    0.000    0.388    0.402
 multiply_cannon_metrocomm1        1760 11.1    0.001    0.001    0.101    0.389
 cp_fm_uplo_to_full                 185  8.3    0.302    0.387    0.302    0.387
 dbcsr_complete_redistribute        320  8.5    0.028    0.032    0.371    0.375
 cp_fm_to_fm_submat_general         112 10.1    0.305    0.374    0.305    0.374
 pw_axpy                            755  9.3    0.327    0.359    0.327    0.359
 dbt_tas_dbm                          8 13.5    0.000    0.000    0.340    0.340
 dbt_copy                            12 10.1    0.000    0.000    0.305    0.332
 pw_poisson_rebuild                  76  9.0    0.000    0.000    0.316    0.328
 ps_wavelet_create                    1 10.0    0.000    0.000    0.316    0.328
 RS_z_slice_distribution              1 11.0    0.251    0.273    0.316    0.328
 mp_bcast_dm                       3040  9.0    0.280    0.326    0.280    0.326
 dbm_multiply                         8 15.5    0.278    0.320    0.278    0.320
 Vh_1c_gg_integrals                  76  8.0    0.020    0.225    0.296    0.310
 multiply_cannon_multrec           1760 11.1    0.075    0.303    0.076    0.304
 dbt_tas_mm_1N                        6 14.5    0.000    0.000    0.260    0.302
 transfer_rs2pw_10                   76  9.0    0.075    0.078    0.274    0.295
 init_scf_run                         1  3.0    0.000    0.000    0.290    0.291
 dbcsr_rep_row_to_rep_col_vec      4335  8.0    0.013    0.015    0.211    0.290
 dbcsr_col_vec_to_rep_row          4335  8.0    0.015    0.017    0.231    0.283
 dbt_reshape                          8 11.6    0.027    0.032    0.234    0.263
 cp_fm_redistribute_start            81  8.0    0.200    0.207    0.244    0.263
 dbcsr_desymmetrize_deep            168  8.0    0.007    0.008    0.215    0.255
 scf_env_initial_rho_setup            1  4.0    0.000    0.000    0.245    0.246
 dbcsr_add_d                       6563  7.0    0.003    0.003    0.037    0.224
 dbcsr_add_anytype                 6563  8.0    0.005    0.026    0.034    0.221
 dbt_communicate_buffer               8 12.6    0.001    0.001    0.191    0.218
 qs_init_subsys                       1  2.0    0.002    0.002    0.212    0.212
 pw_zero                            452 10.3    0.195    0.208    0.195    0.208
 fft_wrap_pw1pw2_30                 152 10.5    0.004    0.006    0.202    0.206
 qs_env_setup                         1  3.0    0.000    0.000    0.202    0.203
 qs_env_rebuild_pw_env                2  3.5    0.000    0.000    0.202    0.203
 pw_env_rebuild                       1  5.0    0.000    0.000    0.202    0.203
 array2fm_info                        4  8.0    0.184    0.195    0.186    0.198
 copy_fm_to_dbcsr                   154  8.1    0.000    0.000    0.190    0.193
 mp_waitall_2                        48 15.8    0.139    0.189    0.139    0.189
 fm_general_add_bse_1_setup           5 11.2    0.180    0.185    0.180    0.185
 postprocess_bse                      1  9.0    0.000    0.000    0.178    0.182
 create_qs_kind_set                   1  2.0    0.000    0.000    0.164    0.164
 read_qs_kind                         5  3.0    0.060    0.098    0.164    0.164
 abc_contract                      5918  9.0    0.093    0.163    0.093    0.163
 calculate_rho0_atom                380  9.0    0.154    0.160    0.154    0.160
 mp_bcast_b_src                     157  7.1    0.114    0.159    0.114    0.159
 mp_alltoall_i22                    488  9.4    0.116    0.159    0.116    0.159
 pw_grid_setup                        4  6.0    0.000    0.000    0.158    0.158
 pw_grid_setup_internal               4  7.0    0.003    0.003    0.158    0.158
 get_2c_integrals                     1  6.0    0.000    0.000    0.111    0.157
 fm_general_add_bse_5_comm_buff       5 11.2    0.000    0.000    0.136    0.155
 communicate_buffer                   5 12.2    0.000    0.000    0.136    0.155
 mp_alltoall_i11v                  1128  9.5    0.154    0.154    0.154    0.154
 dbt_remap                            8 10.0    0.001    0.001    0.152    0.154
 mp_sum_l                          1346  7.0    0.103    0.149    0.103    0.149
 integrate_four_center_load          76 10.0    0.000    0.000    0.101    0.146
 hfx_load_balance                     1 11.0    0.000    0.000    0.101    0.146
 mp_bcast_dv                       4414  9.0    0.107    0.145    0.107    0.145
 array2fm_buffer_send                 4  8.0    0.133    0.141    0.133    0.141
 dbt_tas_replicate                    8 13.5    0.036    0.040    0.135    0.141
 mp_irecv_dv                      13953 12.1    0.014    0.138    0.014    0.138
 dbcsr_finalize                    8672 10.6    0.007    0.036    0.039    0.136
 mp2_main_alloc_hfx                   1  4.0    0.085    0.128    0.085    0.128
 mp_max_i                           595  2.9    0.113    0.128    0.113    0.128
 cp_fm_symm                          76  7.0    0.117    0.126    0.117    0.126
 fm_general_add_bse_4_buf_from_       1 10.0    0.107    0.125    0.107    0.125
 fft_wrap_pw1pw2_10                 152 10.5    0.001    0.001    0.118    0.121
 cholesky_decomp                      1  7.0    0.000    0.000    0.065    0.121
 get_oscillator_strengths             1 10.0    0.000    0.000    0.119    0.120
 write_mo_set_to_restart             75  5.0    0.002    0.092    0.096    0.116
 pw_grid_sort                         4  8.0    0.080    0.083    0.109    0.112
 fm_general_add_bse_4_buf_from_       1 10.0    0.107    0.112    0.107    0.112
 make_m2s                           480  9.0    0.003    0.003    0.106    0.112
 hfx_load_balance_range               1 12.0    0.000    0.000    0.064    0.109
 multiply_cannon_metrocomm4        1520 11.1    0.002    0.003    0.011    0.108
 external_control                    76  5.0    0.001    0.105    0.108    0.108
 dbt_tas_estimate_result_nze          4 12.0    0.004    0.005    0.108    0.108
 parser_read_line                 26514  4.0    0.004    0.004    0.104    0.105
 parser_read_line_low                43  5.0    0.002    0.023    0.100    0.101
 mp_sum_i                            19  9.5    0.043    0.101    0.043    0.101
 restraint_control                    1  2.0    0.000    0.000    0.043    0.101
 broadcast_input_information         43  6.0    0.007    0.007    0.098    0.100
 hybrid_alltoall_any                648 11.3    0.023    0.028    0.091    0.096
 write_mo_set_low                     4  6.0    0.000    0.000    0.094    0.095
 cp_fm_write_unformatted              4  7.0    0.094    0.095    0.094    0.095
 Q_trace_and_add_unit_matrix        100  8.0    0.001    0.001    0.046    0.083
 make_images                        480 10.0    0.016    0.018    0.075    0.081
 dbt_tas_communicate_buffer          16 15.9    0.001    0.001    0.075    0.081
 dbcsr_iterator_start             54079  8.8    0.038    0.061    0.045    0.079
 dbt_tas_replicate_communicate_       6 14.5    0.000    0.000    0.071    0.077
 mult_B_with_W                        1  8.0    0.000    0.000    0.075    0.077
 dbt_split_blocks_generic            20  8.8    0.031    0.033    0.073    0.075
 mp_bcast_i_src                     172  7.0    0.065    0.075    0.065    0.075
 scale_and_distribute               152 10.0    0.058    0.072    0.058    0.072
 array2fm_fill                        4  8.0    0.025    0.030    0.049    0.071
 dbcsr_merge_all                   7574 11.2    0.011    0.044    0.023    0.064
 dbm_reserve_blocks                  66 14.0    0.057    0.064    0.057    0.064
 pw_scale                           301  9.5    0.042    0.063    0.042    0.063
 dbt_distribution_new_expert         76 10.1    0.001    0.001    0.058    0.061
 mp_isend_dm3                      2748 11.5    0.035    0.060    0.035    0.060
 rs_scatter_matrices                 76  7.0    0.001    0.001    0.058    0.060
 mp_isend_im2                       622 13.3    0.044    0.059    0.044    0.059
 dbcsr_copy                       18393  7.6    0.032    0.037    0.053    0.059
 cp_fm_create                       381  7.8    0.048    0.056    0.048    0.056
 mp_rank_compare                   1587 12.9    0.046    0.056    0.046    0.056
 ao_to_mo_and_store_B_mult_gw_1      20  7.0    0.000    0.000    0.053    0.055
 ao_to_mo_and_store_B_mult_bse_      20  7.0    0.000    0.000    0.049    0.055
 get_multipoles_mo                    1 10.0    0.000    0.000    0.049    0.053
 scf_post_calculation_gpw             1  3.0    0.000    0.000    0.053    0.053
 write_available_results              1  4.0    0.000    0.000    0.053    0.053
 write_mo_free_results                1  5.0    0.004    0.005    0.053    0.053
 dbt_split_copyback                   4 10.0    0.034    0.040    0.046    0.053
 dbt_tas_reserve_blocks_index        58 12.9    0.001    0.001    0.046    0.052
 mp_sum_iv                          441  9.7    0.033    0.051    0.033    0.051
 dbt_nd_mp_comm                       8 11.0    0.000    0.000    0.029    0.049
 dbt_reserve_blocks_index            36 10.8    0.001    0.001    0.042    0.048
 mp_comm_split_direct                48 14.5    0.036    0.048    0.036    0.048
 dbcsr_work_create                 8542 10.4    0.006    0.033    0.010    0.047
 vxc_of_r_new                       300  9.0    0.001    0.007    0.005    0.044
 dbt_reserve_blocks_index_array      28 10.6    0.000    0.000    0.038    0.044
 mp_wait                            109  9.0    0.024    0.044    0.024    0.044
 ao_to_mo_and_store_B_E_Ex_gw_1      20  7.0    0.014    0.016    0.037    0.041
 compute_2c_integrals                 1  7.0    0.000    0.001    0.027    0.041
 compute_max_radius                   1  6.0    0.039    0.040    0.039    0.040
 dbt_tas_distribution_new            94 11.8    0.015    0.016    0.038    0.039
 mp_cart_sub                        336  9.0    0.038    0.039    0.038    0.039
 dbcsr_iterator_stop              54079  8.8    0.023    0.032    0.028    0.038
 make_images_data                   480 11.0    0.003    0.003    0.031    0.037
 dbcsr_work_destroy_all            8542 11.4    0.005    0.026    0.007    0.035
 mp2_main_free_hfx                    1  4.0    0.021    0.035    0.021    0.035
 truncate_BSE_matrices                1  8.0    0.000    0.000    0.033    0.034
 ao_to_mo_and_store_B_mult_1         20  7.0    0.000    0.000    0.024    0.033
 sort_shells                          4  9.0    0.029    0.032    0.029    0.032
 dbcsr_create_new                 22065  8.9    0.022    0.023    0.030    0.031
 hfx_load_balance_redist              1 12.0    0.002    0.003    0.031    0.031
 mp_maxloc_dv                      1523  1.0    0.028    0.031    0.028    0.031
 cp_dbcsr_sm_fm_multiply              3 11.0    0.000    0.000    0.030    0.031
 ao_to_mo_and_store_B_E_Ex_bse_      20  7.0    0.009    0.011    0.028    0.030
 dbt_tas_create_split                44 13.2    0.000    0.000    0.030    0.030
 dbt_tas_create_split_rows_or_c      44 14.2    0.000    0.000    0.030    0.030
 mp_bcast_am_src                     43  7.0    0.024    0.029    0.025    0.030
 calc_fm_mat_S_rpa                  100  9.0    0.009    0.029    0.009    0.029
 mixing_init                          1  5.0    0.026    0.028    0.028    0.028
 create_fast_col_vec_access        8670  8.0    0.017    0.018    0.026    0.027
 mp_isendrecv_lv                    158 13.0    0.001    0.027    0.001    0.027
 create_fast_row_vec_access        8670  8.0    0.016    0.017    0.025    0.026
 mp_alltoall_i                       37 14.0    0.019    0.025    0.019    0.025
 hirshfeld_integration                1  6.0    0.001    0.006    0.024    0.024
 dbcsr_sym_matrix_vector_mult_l    4335  8.0    0.011    0.015    0.021    0.024
 xc_pw_smooth                        75 10.0    0.000    0.000    0.022    0.024
 array2fm_isendrecv                   4  8.0    0.003    0.004    0.012    0.023
 cp_fm_set_all                      140  9.9    0.020    0.023    0.020    0.023
 fm_general_add_bse_3_alloc_buf       5 11.2    0.015    0.023    0.015    0.023
 calculate_hirshfeld_normalizat       1  6.0    0.001    0.005    0.021    0.022
 dbcsr_data_new                   83042 10.7    0.009    0.022    0.009    0.022
 mp_cart_rank                     64030 12.1    0.018    0.022    0.018    0.022
 dbcsr_scale_anytype               6564  9.0    0.005    0.007    0.017    0.021
 fm_general_add_bse_6_buffer_to       1 10.0    0.017    0.021    0.017    0.021
 mp_comm_split                       79  8.9    0.019    0.021    0.019    0.021
 dbcsr_crop_matrix                  450 10.0    0.001    0.002    0.019    0.021
 make_images_sizes                  480 11.0    0.000    0.000    0.016    0.021
 mp_alltoall_i44                    480 12.0    0.016    0.020    0.016    0.020
 dbcsr_data_release              142582 10.3    0.012    0.020    0.012    0.020
 dbt_tas_mm_2                         2 14.5    0.000    0.000    0.020    0.020
 ao_to_mo_and_store_B_mult_bse_      20  7.0    0.000    0.000    0.017    0.019
 array2fm_waitall                     4  8.0    0.000    0.000    0.001    0.019
 fm_general_add_bse_2_comm_entr       5 11.2    0.000    0.000    0.013    0.019
 dbt_create_new                      40  9.5    0.000    0.000    0.018    0.019
 dbcsr_iterator_seek              54079  9.8    0.007    0.019    0.007    0.019
 offload_free_buffer                 84  8.4    0.012    0.018    0.012    0.018
 mp_sum_im                         4096 12.9    0.014    0.018    0.014    0.018
 dbm_add                              8 13.5    0.014    0.017    0.014    0.017
 cp_dbcsr_sm_fm_multiply_core         3 12.0    0.000    0.000    0.016    0.017
 -------------------------------------------------------------------------------

 The number of warnings for this run is : 1
 
 -------------------------------------------------------------------------------
  **** **** ******  **  PROGRAM ENDED AT                 2025-05-05 17:20:41.853
 ***** ** ***  *** **   PROGRAM RAN ON                                  n2cn0335
 **    ****   ******    PROGRAM RAN BY                                  metdyn02
 ***** **    ** ** **   PROGRAM PROCESS ID                                716210
  **** **  *******  **  PROGRAM STOPPED IN /scratch/hpc-prf-metdyn/metdyn02_Remi
                                           /10_MOL/05_MOL/aUKBqsEOTmq69kFe5R_nOg
                                           /5k_set_final_qzvp/VUZHAA/DZVP/GW+BSE
                                           /RILIM
